 Entering Gaussian System, Link 0=g09
 Initial command:
 /home/k0335/k033513/app/g09/l1.exe "/home/k0335/k033513/app/g09/scratch/Gau-567747.inp" -scrdir="/home/k0335/k033513/app/g09/scratch/"
 Default is to use a total of  36 processors:
                               36 via shared-memory
                                1 via Linda
 Entering Link 1 = /home/k0335/k033513/app/g09/l1.exe PID=    567748.
  
 Copyright (c) 1988,1990,1992,1993,1995,1998,2003,2009,2013,
            Gaussian, Inc.  All Rights Reserved.
  
 This is part of the Gaussian(R) 09 program.  It is based on
 the Gaussian(R) 03 system (copyright 2003, Gaussian, Inc.),
 the Gaussian(R) 98 system (copyright 1998, Gaussian, Inc.),
 the Gaussian(R) 94 system (copyright 1995, Gaussian, Inc.),
 the Gaussian 92(TM) system (copyright 1992, Gaussian, Inc.),
 the Gaussian 90(TM) system (copyright 1990, Gaussian, Inc.),
 the Gaussian 88(TM) system (copyright 1988, Gaussian, Inc.),
 the Gaussian 86(TM) system (copyright 1986, Carnegie Mellon
 University), and the Gaussian 82(TM) system (copyright 1983,
 Carnegie Mellon University). Gaussian is a federally registered
 trademark of Gaussian, Inc.
  
 This software contains proprietary and confidential information,
 including trade secrets, belonging to Gaussian, Inc.
  
 This software is provided under written license and may be
 used, copied, transmitted, or stored only in accord with that
 written license.
  
 The following legend is applicable only to US Government
 contracts under FAR:
  
                    RESTRICTED RIGHTS LEGEND
  
 Use, reproduction and disclosure by the US Government is
 subject to restrictions as set forth in subparagraphs (a)
 and (c) of the Commercial Computer Software - Restricted
 Rights clause in FAR 52.227-19.
  
 Gaussian, Inc.
 340 Quinnipiac St., Bldg. 40, Wallingford CT 06492
  
  
 ---------------------------------------------------------------
 Warning -- This program may not be used in any manner that
 competes with the business of Gaussian, Inc. or will provide
 assistance to any competitor of Gaussian, Inc.  The licensee
 of this program is prohibited from giving any competitor of
 Gaussian, Inc. access to this program.  By using this program,
 the user acknowledges that Gaussian, Inc. is engaged in the
 business of creating and licensing software in the field of
 computational chemistry and represents and warrants to the
 licensee that it is not a competitor of Gaussian, Inc. and that
 it will not use this program in any manner prohibited above.
 ---------------------------------------------------------------
  

 Cite this work as:
 Gaussian 09, Revision D.01,
 M. J. Frisch, G. W. Trucks, H. B. Schlegel, G. E. Scuseria, 
 M. A. Robb, J. R. Cheeseman, G. Scalmani, V. Barone, B. Mennucci, 
 G. A. Petersson, H. Nakatsuji, M. Caricato, X. Li, H. P. Hratchian, 
 A. F. Izmaylov, J. Bloino, G. Zheng, J. L. Sonnenberg, M. Hada, 
 M. Ehara, K. Toyota, R. Fukuda, J. Hasegawa, M. Ishida, T. Nakajima, 
 Y. Honda, O. Kitao, H. Nakai, T. Vreven, J. A. Montgomery, Jr., 
 J. E. Peralta, F. Ogliaro, M. Bearpark, J. J. Heyd, E. Brothers, 
 K. N. Kudin, V. N. Staroverov, T. Keith, R. Kobayashi, J. Normand, 
 K. Raghavachari, A. Rendell, J. C. Burant, S. S. Iyengar, J. Tomasi, 
 M. Cossi, N. Rega, J. M. Millam, M. Klene, J. E. Knox, J. B. Cross, 
 V. Bakken, C. Adamo, J. Jaramillo, R. Gomperts, R. E. Stratmann, 
 O. Yazyev, A. J. Austin, R. Cammi, C. Pomelli, J. W. Ochterski, 
 R. L. Martin, K. Morokuma, V. G. Zakrzewski, G. A. Voth, 
 P. Salvador, J. J. Dannenberg, S. Dapprich, A. D. Daniels, 
 O. Farkas, J. B. Foresman, J. V. Ortiz, J. Cioslowski, 
 and D. J. Fox, Gaussian, Inc., Wallingford CT, 2013.
 
 ******************************************
 Gaussian 09:  ES64L-G09RevD.01 24-Apr-2013
                 4-Mar-2024 
 ******************************************
 %nprocshared=24
 Will use up to   24 processors via shared memory.
 %mem=40GB
 %rwf=A4693530/A4693530_p1.rwf
 %nosave
 %chk=A4693530/A4693530_p1.chk
 ----------------------------------------------------------------------
 #p CAM-B3LYP/6-31G(d,p) SCRF=(PCM,Solvent=Generic,Read) NoSymm out=wfn
 ----------------------------------------------------------------------
 1/38=1,40=2/1;
 2/12=2,15=1,17=6,18=5,40=1/2;
 3/5=1,6=6,7=101,11=2,16=1,25=1,30=1,70=2203,72=-2,74=-40/1,2,3;
 4//1;
 5/5=2,38=5/2;
 6/7=2,8=2,9=2,10=2,28=1/1;
 99/5=1,6=100,9=1/99;
 Leave Link    1 at Mon Mar  4 23:37:18 2024, MaxMem=  5368709120 cpu:         0.8
 (Enter /home/k0335/k033513/app/g09/l101.exe)
 -----------------
 Title A4693530_p1
 -----------------
 Symbolic Z-matrix:
 Charge =  1 Multiplicity = 2
 C                     4.60161   3.67835  -2.2235 
 C                     3.29195   3.62348  -1.48083 
 C                     3.03838   2.62509  -0.61054 
 C                     1.80722   2.39253   0.22105 
 N                     1.0265    1.23576  -0.25446 
 C                     1.71074  -0.10706  -0.25716 
 C                     0.98189  -1.19627  -1.07549 
 C                    -0.35333  -1.627    -0.46546 
 C                    -1.35272  -0.46063  -0.32732 
 N                    -1.05102   0.643    -1.26348 
 C                    -0.03167   1.56791  -1.09977 
 O                    -0.10873   2.67361  -1.63796 
 C                    -2.05158   0.91799  -2.29499 
 C                    -3.22504   1.62428  -1.6774 
 C                    -4.50492   1.2106   -1.58489 
 C                    -5.03521  -0.10041  -2.09438 
 C                    -5.54396   2.08851  -0.93634 
 C                    -1.57353   0.04571   1.1194 
 C                    -2.26031  -0.96988   2.00688 
 C                    -1.56776  -1.59938   3.04953 
 C                    -2.20412  -2.54934   3.8502 
 C                    -3.53983  -2.8743    3.62257 
 C                    -4.24324  -2.24455   2.59848 
 C                    -3.60848  -1.2951    1.79689 
 O                    -0.8934   -2.62835  -1.36593 
 O                     1.79911  -2.36334  -1.24957 
 C                     2.0976   -0.55804   1.1839 
 C                     3.11421  -1.66884   1.30825 
 C                     4.43521  -1.47958   0.87924 
 C                     5.37812  -2.49979   1.01702 
 C                     5.01283  -3.71659   1.58891 
 C                     3.70431  -3.91461   2.02425 
 C                     2.75989  -2.89573   1.88777 
 C                     2.34732   4.74413  -1.81942 
 H                     4.42668   3.638    -3.3035 
 H                     5.13129   4.60788  -1.99021 
 H                     5.26333   2.84557  -1.96338 
 H                     3.82833   1.89484  -0.44556 
 H                     2.10354   2.21612   1.2585 
 H                     1.16592   3.27763   0.26755 
 H                     2.64794   0.04815  -0.80474 
 H                     0.82519  -0.83491  -2.09998 
 H                    -0.19853  -2.15936   0.47699 
 H                    -2.32206  -0.8608   -0.65316 
 H                    -2.30988  -0.02804  -2.77763 
 H                    -1.62661   1.55541  -3.07879 
 H                    -2.96797   2.60847  -1.28227 
 H                    -4.26212  -0.75594  -2.49907 
 H                    -5.53056  -0.64724  -1.28447 
 H                    -5.76859   0.07565  -2.8884 
 H                    -6.34847   2.31088  -1.64516 
 H                    -5.12928   3.04319  -0.59525 
 H                    -5.97561   1.58348  -0.06582 
 H                    -2.20387   0.9451    1.1026 
 H                    -0.63811   0.37055   1.5819 
 H                    -0.52926  -1.35339   3.25603 
 H                    -1.65884  -3.03227   4.65749 
 H                    -4.03504  -3.61071   4.25032 
 H                    -5.2892   -2.48755   2.42896 
 H                    -4.17759  -0.80131   1.01189 
 H                    -1.6798   -3.00514  -0.92952 
 H                     1.20659  -3.0255   -1.65877 
 H                     2.52198   0.27914   1.74786 
 H                     1.19776  -0.82829   1.74159 
 H                     4.74104  -0.53736   0.43188 
 H                     6.39768  -2.34562   0.67379 
 H                     5.74674  -4.51123   1.69139 
 H                     3.4176   -4.86488   2.46684 
 H                     1.74353  -3.07254   2.23007 
 H                     1.46218   4.77821  -1.18176 
 H                     2.85422   5.70889  -1.70577 
 H                     2.0118    4.65273  -2.8579 
 
 NAtoms=     72 NQM=       72 NQMF=       0 NMMI=      0 NMMIF=      0
                NMic=       0 NMicF=      0.
                    Isotopes and Nuclear Properties:
 (Nuclear quadrupole moments (NQMom) in fm**2, nuclear magnetic moments (NMagM)
  in nuclear magnetons)

  Atom         1           2           3           4           5           6           7           8           9          10
 IAtWgt=          12          12          12          12          14          12          12          12          12          14
 AtmWgt=  12.0000000  12.0000000  12.0000000  12.0000000  14.0030740  12.0000000  12.0000000  12.0000000  12.0000000  14.0030740
 NucSpn=           0           0           0           0           2           0           0           0           0           2
 AtZEff=   0.0000000   0.0000000   0.0000000   0.0000000   0.0000000   0.0000000   0.0000000   0.0000000   0.0000000   0.0000000
 NQMom=    0.0000000   0.0000000   0.0000000   0.0000000   2.0440000   0.0000000   0.0000000   0.0000000   0.0000000   2.0440000
 NMagM=    0.0000000   0.0000000   0.0000000   0.0000000   0.4037610   0.0000000   0.0000000   0.0000000   0.0000000   0.4037610
 AtZNuc=   6.0000000   6.0000000   6.0000000   6.0000000   7.0000000   6.0000000   6.0000000   6.0000000   6.0000000   7.0000000

  Atom        11          12          13          14          15          16          17          18          19          20
 IAtWgt=          12          16          12          12          12          12          12          12          12          12
 AtmWgt=  12.0000000  15.9949146  12.0000000  12.0000000  12.0000000  12.0000000  12.0000000  12.0000000  12.0000000  12.0000000
 NucSpn=           0           0           0           0           0           0           0           0           0           0
 AtZEff=   0.0000000   0.0000000   0.0000000   0.0000000   0.0000000   0.0000000   0.0000000   0.0000000   0.0000000   0.0000000
 NQMom=    0.0000000   0.0000000   0.0000000   0.0000000   0.0000000   0.0000000   0.0000000   0.0000000   0.0000000   0.0000000
 NMagM=    0.0000000   0.0000000   0.0000000   0.0000000   0.0000000   0.0000000   0.0000000   0.0000000   0.0000000   0.0000000
 AtZNuc=   6.0000000   8.0000000   6.0000000   6.0000000   6.0000000   6.0000000   6.0000000   6.0000000   6.0000000   6.0000000

  Atom        21          22          23          24          25          26          27          28          29          30
 IAtWgt=          12          12          12          12          16          16          12          12          12          12
 AtmWgt=  12.0000000  12.0000000  12.0000000  12.0000000  15.9949146  15.9949146  12.0000000  12.0000000  12.0000000  12.0000000
 NucSpn=           0           0           0           0           0           0           0           0           0           0
 AtZEff=   0.0000000   0.0000000   0.0000000   0.0000000   0.0000000   0.0000000   0.0000000   0.0000000   0.0000000   0.0000000
 NQMom=    0.0000000   0.0000000   0.0000000   0.0000000   0.0000000   0.0000000   0.0000000   0.0000000   0.0000000   0.0000000
 NMagM=    0.0000000   0.0000000   0.0000000   0.0000000   0.0000000   0.0000000   0.0000000   0.0000000   0.0000000   0.0000000
 AtZNuc=   6.0000000   6.0000000   6.0000000   6.0000000   8.0000000   8.0000000   6.0000000   6.0000000   6.0000000   6.0000000

  Atom        31          32          33          34          35          36          37          38          39          40
 IAtWgt=          12          12          12          12           1           1           1           1           1           1
 AtmWgt=  12.0000000  12.0000000  12.0000000  12.0000000   1.0078250   1.0078250   1.0078250   1.0078250   1.0078250   1.0078250
 NucSpn=           0           0           0           0           1           1           1           1           1           1
 AtZEff=   0.0000000   0.0000000   0.0000000   0.0000000   0.0000000   0.0000000   0.0000000   0.0000000   0.0000000   0.0000000
 NQMom=    0.0000000   0.0000000   0.0000000   0.0000000   0.0000000   0.0000000   0.0000000   0.0000000   0.0000000   0.0000000
 NMagM=    0.0000000   0.0000000   0.0000000   0.0000000   2.7928460   2.7928460   2.7928460   2.7928460   2.7928460   2.7928460
 AtZNuc=   6.0000000   6.0000000   6.0000000   6.0000000   1.0000000   1.0000000   1.0000000   1.0000000   1.0000000   1.0000000

  Atom        41          42          43          44          45          46          47          48          49          50
 IAtWgt=           1           1           1           1           1           1           1           1           1           1
 AtmWgt=   1.0078250   1.0078250   1.0078250   1.0078250   1.0078250   1.0078250   1.0078250   1.0078250   1.0078250   1.0078250
 NucSpn=           1           1           1           1           1           1           1           1           1           1
 AtZEff=   0.0000000   0.0000000   0.0000000   0.0000000   0.0000000   0.0000000   0.0000000   0.0000000   0.0000000   0.0000000
 NQMom=    0.0000000   0.0000000   0.0000000   0.0000000   0.0000000   0.0000000   0.0000000   0.0000000   0.0000000   0.0000000
 NMagM=    2.7928460   2.7928460   2.7928460   2.7928460   2.7928460   2.7928460   2.7928460   2.7928460   2.7928460   2.7928460
 AtZNuc=   1.0000000   1.0000000   1.0000000   1.0000000   1.0000000   1.0000000   1.0000000   1.0000000   1.0000000   1.0000000

  Atom        51          52          53          54          55          56          57          58          59          60
 IAtWgt=           1           1           1           1           1           1           1           1           1           1
 AtmWgt=   1.0078250   1.0078250   1.0078250   1.0078250   1.0078250   1.0078250   1.0078250   1.0078250   1.0078250   1.0078250
 NucSpn=           1           1           1           1           1           1           1           1           1           1
 AtZEff=   0.0000000   0.0000000   0.0000000   0.0000000   0.0000000   0.0000000   0.0000000   0.0000000   0.0000000   0.0000000
 NQMom=    0.0000000   0.0000000   0.0000000   0.0000000   0.0000000   0.0000000   0.0000000   0.0000000   0.0000000   0.0000000
 NMagM=    2.7928460   2.7928460   2.7928460   2.7928460   2.7928460   2.7928460   2.7928460   2.7928460   2.7928460   2.7928460
 AtZNuc=   1.0000000   1.0000000   1.0000000   1.0000000   1.0000000   1.0000000   1.0000000   1.0000000   1.0000000   1.0000000

  Atom        61          62          63          64          65          66          67          68          69          70
 IAtWgt=           1           1           1           1           1           1           1           1           1           1
 AtmWgt=   1.0078250   1.0078250   1.0078250   1.0078250   1.0078250   1.0078250   1.0078250   1.0078250   1.0078250   1.0078250
 NucSpn=           1           1           1           1           1           1           1           1           1           1
 AtZEff=   0.0000000   0.0000000   0.0000000   0.0000000   0.0000000   0.0000000   0.0000000   0.0000000   0.0000000   0.0000000
 NQMom=    0.0000000   0.0000000   0.0000000   0.0000000   0.0000000   0.0000000   0.0000000   0.0000000   0.0000000   0.0000000
 NMagM=    2.7928460   2.7928460   2.7928460   2.7928460   2.7928460   2.7928460   2.7928460   2.7928460   2.7928460   2.7928460
 AtZNuc=   1.0000000   1.0000000   1.0000000   1.0000000   1.0000000   1.0000000   1.0000000   1.0000000   1.0000000   1.0000000

  Atom        71          72
 IAtWgt=           1           1
 AtmWgt=   1.0078250   1.0078250
 NucSpn=           1           1
 AtZEff=   0.0000000   0.0000000
 NQMom=    0.0000000   0.0000000
 NMagM=    2.7928460   2.7928460
 AtZNuc=   1.0000000   1.0000000
 Leave Link  101 at Mon Mar  4 23:37:18 2024, MaxMem=  5368709120 cpu:         1.2
 (Enter /home/k0335/k033513/app/g09/l202.exe)
 Symmetry turned off by external request.
 Stoichiometry    C29H38N2O3(1+,2)
 Framework group  C1[X(C29H38N2O3)]
 Deg. of freedom   210
 Full point group                 C1      NOp   1
                          Input orientation:                          
 ---------------------------------------------------------------------
 Center     Atomic      Atomic             Coordinates (Angstroms)
 Number     Number       Type             X           Y           Z
 ---------------------------------------------------------------------
      1          6           0        4.601611    3.678348   -2.223496
      2          6           0        3.291946    3.623484   -1.480830
      3          6           0        3.038379    2.625087   -0.610544
      4          6           0        1.807217    2.392529    0.221053
      5          7           0        1.026498    1.235759   -0.254464
      6          6           0        1.710736   -0.107060   -0.257155
      7          6           0        0.981893   -1.196270   -1.075494
      8          6           0       -0.353325   -1.627003   -0.465458
      9          6           0       -1.352722   -0.460625   -0.327320
     10          7           0       -1.051018    0.642998   -1.263476
     11          6           0       -0.031668    1.567911   -1.099769
     12          8           0       -0.108728    2.673608   -1.637955
     13          6           0       -2.051580    0.917990   -2.294988
     14          6           0       -3.225041    1.624281   -1.677404
     15          6           0       -4.504917    1.210603   -1.584893
     16          6           0       -5.035205   -0.100409   -2.094385
     17          6           0       -5.543955    2.088509   -0.936342
     18          6           0       -1.573534    0.045708    1.119396
     19          6           0       -2.260309   -0.969875    2.006881
     20          6           0       -1.567757   -1.599384    3.049525
     21          6           0       -2.204125   -2.549340    3.850197
     22          6           0       -3.539825   -2.874303    3.622570
     23          6           0       -4.243243   -2.244550    2.598481
     24          6           0       -3.608477   -1.295096    1.796885
     25          8           0       -0.893401   -2.628351   -1.365933
     26          8           0        1.799107   -2.363335   -1.249571
     27          6           0        2.097601   -0.558040    1.183898
     28          6           0        3.114213   -1.668836    1.308254
     29          6           0        4.435207   -1.479575    0.879244
     30          6           0        5.378119   -2.499788    1.017022
     31          6           0        5.012827   -3.716587    1.588910
     32          6           0        3.704312   -3.914609    2.024249
     33          6           0        2.759889   -2.895729    1.887771
     34          6           0        2.347320    4.744127   -1.819415
     35          1           0        4.426679    3.638004   -3.303496
     36          1           0        5.131293    4.607878   -1.990213
     37          1           0        5.263334    2.845570   -1.963384
     38          1           0        3.828325    1.894841   -0.445563
     39          1           0        2.103539    2.216124    1.258500
     40          1           0        1.165924    3.277630    0.267554
     41          1           0        2.647940    0.048148   -0.804741
     42          1           0        0.825188   -0.834906   -2.099976
     43          1           0       -0.198530   -2.159357    0.476988
     44          1           0       -2.322063   -0.860800   -0.653157
     45          1           0       -2.309878   -0.028043   -2.777628
     46          1           0       -1.626607    1.555406   -3.078794
     47          1           0       -2.967965    2.608472   -1.282273
     48          1           0       -4.262124   -0.755941   -2.499072
     49          1           0       -5.530561   -0.647238   -1.284470
     50          1           0       -5.768592    0.075652   -2.888402
     51          1           0       -6.348465    2.310876   -1.645155
     52          1           0       -5.129279    3.043191   -0.595249
     53          1           0       -5.975608    1.583484   -0.065816
     54          1           0       -2.203866    0.945099    1.102604
     55          1           0       -0.638106    0.370549    1.581904
     56          1           0       -0.529262   -1.353391    3.256034
     57          1           0       -1.658835   -3.032268    4.657495
     58          1           0       -4.035037   -3.610710    4.250324
     59          1           0       -5.289202   -2.487550    2.428960
     60          1           0       -4.177594   -0.801307    1.011892
     61          1           0       -1.679802   -3.005141   -0.929516
     62          1           0        1.206585   -3.025501   -1.658773
     63          1           0        2.521976    0.279141    1.747859
     64          1           0        1.197760   -0.828291    1.741586
     65          1           0        4.741037   -0.537361    0.431881
     66          1           0        6.397677   -2.345620    0.673786
     67          1           0        5.746740   -4.511227    1.691391
     68          1           0        3.417603   -4.864877    2.466836
     69          1           0        1.743529   -3.072538    2.230069
     70          1           0        1.462176    4.778207   -1.181755
     71          1           0        2.854224    5.708890   -1.705774
     72          1           0        2.011803    4.652727   -2.857901
 ---------------------------------------------------------------------
 Rotational constants (GHZ):      0.1303115      0.1006909      0.0662487
 Leave Link  202 at Mon Mar  4 23:37:18 2024, MaxMem=  5368709120 cpu:         0.0
 (Enter /home/k0335/k033513/app/g09/l301.exe)
 Standard basis: 6-31G(d,p) (6D, 7F)
 Ernie: Thresh=  0.10000D-02 Tol=  0.10000D-05 Strict=F.
   700 basis functions,  1218 primitive gaussians,   700 cartesian basis functions
   125 alpha electrons      124 beta electrons
       nuclear repulsion energy      3726.7404467746 Hartrees.
 IExCor=20419 DFT=T Ex+Corr=CAM-B3LYP ExCW=0 ScaHFX=  1.000000
 ScaDFX=  1.000000  1.000000  1.000000  0.810000 ScalE2=  1.000000  1.000000
 IRadAn=      0 IRanWt=     -1 IRanGd=            0 ICorTp=0 IEmpDi=  4
  HFx wShort=  0.000000 wLong=  0.330000 cFull=  0.190000 cShort=  0.000000 cLong=  0.460000
  DFx wShort=  0.000000 wLong=  0.330000 cFull=  0.190000 cShort=  0.000000 cLong=  0.460000
 NAtoms=   72 NActive=   72 NUniq=   72 SFac= 1.00D+00 NAtFMM=   60 NAOKFM=T Big=T
 Integral buffers will be    131072 words long.
 Raffenetti 2 integral format.
 Two-electron integral symmetry is turned off.
 Using the following non-standard input for PCM:
 eps=2.05
 --- end of non-standard input.
 ------------------------------------------------------------------------------
 Polarizable Continuum Model (PCM)
 =================================
 Model                : PCM (using non-symmetric T matrix).
 Atomic radii         : UFF (Universal Force Field).
 Polarization charges : Total charges.
 Charge compensation  : None.
 Solution method      : On-the-fly selection.
 Cavity type          : Scaled VdW (van der Waals Surface) (Alpha=1.100).
 Cavity algorithm     : GePol (No added spheres)
                        Default sphere list used, NSphG=   72.
                        Lebedev-Laikov grids with approx.  5.0 points / Ang**2.
                        Smoothing algorithm: Karplus/York (Gamma=1.0000).
                        Polarization charges: spherical gaussians, with
                                              point-specific exponents (IZeta= 3).
                        Self-potential: point-specific (ISelfS= 7).
                        Self-field    : sphere-specific E.n sum rule (ISelfD= 2).
 Solvent              : Generic,
                        Eps                           =   2.050000
                        Eps(infinity)                 =   0.000000
                        RSolv                         =   0.000000 Ang.
                        Molar volume                  =   0.000000 cm**3/mol
                        Thermal expansion coefficient =   0.000000 K**-1
                        Absolute temperature          = 298.150000 K
                        Numeral density               =   0.000000 Ang**-3
                        Hydrogen bond acidity         =   0.000000
                        Hydrogen bond basicity        =   0.000000
                        Surface tension at interface  =   0.000000 (cal/mol)*Ang**-2
                        Carbon aromaticity            =   0.000000
                        Electronegative halogenicity  =   0.000000
 ------------------------------------------------------------------------------
 GePol: Number of generator spheres                  =      72
 GePol: Total number of spheres                      =      72
 GePol: Number of exposed spheres                    =      72 (100.00%)
 GePol: Number of points                             =    4533
 GePol: Average weight of points                     =       0.13
 GePol: Minimum weight of points                     =   0.14D-11
 GePol: Maximum weight of points                     =    0.20577
 GePol: Number of points with low weight             =     352
 GePol: Fraction of low-weight points (<1% of avg)   =       7.77%
 GePol: Cavity surface area                          =    576.841 Ang**2
 GePol: Cavity volume                                =    683.599 Ang**3
 Leave Link  301 at Mon Mar  4 23:37:19 2024, MaxMem=  5368709120 cpu:         0.9
 (Enter /home/k0335/k033513/app/g09/l302.exe)
 NPDir=0 NMtPBC=     1 NCelOv=     1 NCel=       1 NClECP=     1 NCelD=      1
         NCelK=      1 NCelE2=     1 NClLst=     1 CellRange=     0.0.
 One-electron integrals computed using PRISM.
 NBasis=   700 RedAO= T EigKep=  4.48D-04  NBF=   700
 NBsUse=   700 1.00D-06 EigRej= -1.00D+00 NBFU=   700
 Precomputing XC quadrature grid using
 IXCGrd= 4 IRadAn=           0 IRanWt=          -1 IRanGd=           0 AccXCQ= 0.00D+00.
 Generated NRdTot=       0 NPtTot=           0 NUsed=           0 NTot=          32
 NSgBfM=   664   664   664   664   664 MxSgAt=    72 MxSgA2=    72.
 Leave Link  302 at Mon Mar  4 23:37:20 2024, MaxMem=  5368709120 cpu:        19.2
 (Enter /home/k0335/k033513/app/g09/l303.exe)
 DipDrv:  MaxL=1.
 Leave Link  303 at Mon Mar  4 23:37:20 2024, MaxMem=  5368709120 cpu:         1.4
 (Enter /home/k0335/k033513/app/g09/l401.exe)
 ExpMin= 1.61D-01 ExpMax= 5.48D+03 ExpMxC= 8.25D+02 IAcc=1 IRadAn=         1 AccDes= 0.00D+00
 Harris functional with IExCor=20419 and IRadAn=       1 diagonalized for initial guess.
 HarFok:  IExCor=20419 AccDes= 0.00D+00 IRadAn=         1 IDoV= 1 UseB2=F ITyADJ=14
 ICtDFT=  3500011 ScaDFX=  1.000000  1.000000  1.000000  1.000000
 FoFCou: FMM=F IPFlag=           0 FMFlag=      100000 FMFlg1=        2001
         NFxFlg=           0 DoJE=T BraDBF=F KetDBF=T FulRan=T
         wScrn=  0.000000 ICntrl=     500 IOpCl=  0 I1Cent=   200000004 NGrid=           0
         NMat0=    1 NMatS0=      1 NMatT0=    0 NMatD0=    1 NMtDS0=    0 NMtDT0=    0
 Symmetry not used in FoFCou.
 Harris En= -1403.84873619517    
 JPrj=0 DoOrth=F DoCkMO=F.
 Initial guess <Sx>= 0.0000 <Sy>= 0.0000 <Sz>= 0.5000 <S**2>= 0.7500 S= 0.5000
 Leave Link  401 at Mon Mar  4 23:37:22 2024, MaxMem=  5368709120 cpu:        26.2
 (Enter /home/k0335/k033513/app/g09/l502.exe)
 UHF open shell SCF:
 Using DIIS extrapolation, IDIIS=  1040.
 Two-electron integral symmetry not used.
 IVT=     1509694 IEndB=     1509694 NGot=  5368709120 MDV=  5367706767
 LenX=  5367706767 LenY=  5367216067
 Requested convergence on RMS density matrix=1.00D-08 within 128 cycles.
 Requested convergence on MAX density matrix=1.00D-06.
 Requested convergence on             energy=1.00D-06.
 No special actions if energy rises.
 Fock matrices will be formed incrementally for  20 cycles.

 Cycle   1  Pass 1  IDiag  1:
 FoFJK:  IHMeth= 1 ICntrl=       0 DoSepK=T KAlg= 0 I1Cent=   0 FoldK=F
 IRaf=         1 NMat=   1 IRICut=       1 DoRegI=T DoRafI=F ISym2E= 0.
 FoFCou: FMM=T IPFlag=           0 FMFlag=      100000 FMFlg1=        2001
         NFxFlg=           0 DoJE=T BraDBF=F KetDBF=F FulRan=T
         wScrn=  0.000000 ICntrl=     500 IOpCl=  0 I1Cent=           0 NGrid=           0
         NMat0=    1 NMatS0=      1 NMatT0=    0 NMatD0=    1 NMtDS0=    0 NMtDT0=    0
 Symmetry not used in FoFCou.
 FMM levels:  10  Number of levels for PrismC:   9
 Inv3:  Mode=1 IEnd=    61644267.
 Iteration    1 A*A^-1 deviation from unit magnitude is 6.99D-15 for   4527.
 Iteration    1 A*A^-1 deviation from orthogonality  is 9.54D-15 for   4510   2080.
 Iteration    1 A^-1*A deviation from unit magnitude is 7.11D-15 for    184.
 Iteration    1 A^-1*A deviation from orthogonality  is 5.98D-15 for   2445   2414.
 E= -1461.65071662005    
 DIIS: error= 5.24D-02 at cycle   1 NSaved=   1.
 NSaved= 1 IEnMin= 1 EnMin= -1461.65071662005     IErMin= 1 ErrMin= 5.24D-02
 ErrMax= 5.24D-02  0.00D+00 EMaxC= 1.00D-01 BMatC= 4.89D+00 BMatP= 4.89D+00
 IDIUse=3 WtCom= 4.76D-01 WtEn= 5.24D-01
 Coeff-Com:  0.100D+01
 Coeff-En:   0.100D+01
 Coeff:      0.100D+01
 Gap=     0.616 Goal=   None    Shift=    0.000
 Gap=     0.079 Goal=   None    Shift=    0.000
 GapD=    0.079 DampG=0.500 DampE=0.500 DampFc=0.2500 IDamp=-1.
 Damping current iteration by 2.50D-01
 RMSDP=2.33D-03 MaxDP=2.16D-01              OVMax= 4.67D-01

 Cycle   2  Pass 1  IDiag  1:
 RMSU=  5.84D-04    CP:  1.00D+00
 E= -1461.80233188329     Delta-E=       -0.151615263248 Rises=F Damp=T
 DIIS: error= 3.96D-02 at cycle   2 NSaved=   2.
 NSaved= 2 IEnMin= 2 EnMin= -1461.80233188329     IErMin= 2 ErrMin= 3.96D-02
 ErrMax= 3.96D-02  0.00D+00 EMaxC= 1.00D-01 BMatC= 2.25D+00 BMatP= 4.89D+00
 IDIUse=3 WtCom= 6.04D-01 WtEn= 3.96D-01
 Coeff-Com: -0.126D+01 0.226D+01
 Coeff-En:   0.000D+00 0.100D+01
 Coeff:     -0.759D+00 0.176D+01
 Gap=     0.422 Goal=   None    Shift=    0.000
 Gap=     0.065 Goal=   None    Shift=    0.000
 RMSDP=9.44D-04 MaxDP=4.76D-02 DE=-1.52D-01 OVMax= 8.68D-01

 Cycle   3  Pass 1  IDiag  1:
 RMSU=  9.08D-04    CP:  9.98D-01  1.44D+00
 E= -1462.01217634131     Delta-E=       -0.209844458019 Rises=F Damp=F
 DIIS: error= 7.55D-03 at cycle   3 NSaved=   3.
 NSaved= 3 IEnMin= 3 EnMin= -1462.01217634131     IErMin= 3 ErrMin= 7.55D-03
 ErrMax= 7.55D-03  0.00D+00 EMaxC= 1.00D-01 BMatC= 4.67D-01 BMatP= 2.25D+00
 IDIUse=3 WtCom= 9.25D-01 WtEn= 7.55D-02
 Coeff-Com: -0.732D+00 0.105D+01 0.678D+00
 Coeff-En:   0.000D+00 0.000D+00 0.100D+01
 Coeff:     -0.677D+00 0.975D+00 0.702D+00
 Gap=     0.367 Goal=   None    Shift=    0.000
 Gap=     0.081 Goal=   None    Shift=    0.000
 RMSDP=5.87D-04 MaxDP=5.80D-02 DE=-2.10D-01 OVMax= 1.57D-01

 Cycle   4  Pass 1  IDiag  1:
 RMSU=  4.47D-04    CP:  9.99D-01  1.95D+00  7.36D-01
 E= -1462.10471777120     Delta-E=       -0.092541429889 Rises=F Damp=F
 DIIS: error= 3.23D-03 at cycle   4 NSaved=   4.
 NSaved= 4 IEnMin= 4 EnMin= -1462.10471777120     IErMin= 4 ErrMin= 3.23D-03
 ErrMax= 3.23D-03  0.00D+00 EMaxC= 1.00D-01 BMatC= 6.66D-02 BMatP= 4.67D-01
 IDIUse=3 WtCom= 9.68D-01 WtEn= 3.23D-02
 Coeff-Com: -0.349D+00 0.476D+00 0.357D+00 0.516D+00
 Coeff-En:   0.000D+00 0.000D+00 0.000D+00 0.100D+01
 Coeff:     -0.338D+00 0.461D+00 0.346D+00 0.532D+00
 Gap=     0.327 Goal=   None    Shift=    0.000
 Gap=     0.068 Goal=   None    Shift=    0.000
 RMSDP=1.96D-04 MaxDP=2.56D-02 DE=-9.25D-02 OVMax= 3.14D-02

 Cycle   5  Pass 1  IDiag  1:
 RMSU=  1.43D-04    CP:  9.98D-01  1.97D+00  8.14D-01  7.49D-01
 E= -1462.11761318047     Delta-E=       -0.012895409272 Rises=F Damp=F
 DIIS: error= 1.11D-03 at cycle   5 NSaved=   5.
 NSaved= 5 IEnMin= 5 EnMin= -1462.11761318047     IErMin= 5 ErrMin= 1.11D-03
 ErrMax= 1.11D-03  0.00D+00 EMaxC= 1.00D-01 BMatC= 6.03D-03 BMatP= 6.66D-02
 IDIUse=3 WtCom= 9.89D-01 WtEn= 1.11D-02
 Coeff-Com: -0.142D+00 0.192D+00 0.884D-01 0.225D+00 0.637D+00
 Coeff-En:   0.000D+00 0.000D+00 0.000D+00 0.000D+00 0.100D+01
 Coeff:     -0.141D+00 0.190D+00 0.874D-01 0.222D+00 0.641D+00
 Gap=     0.322 Goal=   None    Shift=    0.000
 Gap=     0.085 Goal=   None    Shift=    0.000
 RMSDP=5.35D-05 MaxDP=6.97D-03 DE=-1.29D-02 OVMax= 1.49D-02

 Cycle   6  Pass 1  IDiag  1:
 RMSU=  4.39D-05    CP:  9.98D-01  2.00D+00  8.03D-01  7.98D-01  9.73D-01
 E= -1462.11896025324     Delta-E=       -0.001347072768 Rises=F Damp=F
 DIIS: error= 2.82D-04 at cycle   6 NSaved=   6.
 NSaved= 6 IEnMin= 6 EnMin= -1462.11896025324     IErMin= 6 ErrMin= 2.82D-04
 ErrMax= 2.82D-04  0.00D+00 EMaxC= 1.00D-01 BMatC= 8.18D-04 BMatP= 6.03D-03
 IDIUse=3 WtCom= 9.97D-01 WtEn= 2.82D-03
 Coeff-Com:  0.173D-01-0.243D-01-0.659D-01-0.467D-01 0.194D+00 0.926D+00
 Coeff-En:   0.000D+00 0.000D+00 0.000D+00 0.000D+00 0.000D+00 0.100D+01
 Coeff:      0.173D-01-0.242D-01-0.657D-01-0.466D-01 0.193D+00 0.926D+00
 Gap=     0.317 Goal=   None    Shift=    0.000
 Gap=     0.095 Goal=   None    Shift=    0.000
 RMSDP=4.50D-05 MaxDP=3.61D-03 DE=-1.35D-03 OVMax= 1.55D-02

 Cycle   7  Pass 1  IDiag  1:
 RMSU=  2.53D-05    CP:  9.98D-01  2.02D+00  7.98D-01  8.29D-01  1.14D+00
                    CP:  1.47D+00
 E= -1462.11938427732     Delta-E=       -0.000424024073 Rises=F Damp=F
 DIIS: error= 1.29D-04 at cycle   7 NSaved=   7.
 NSaved= 7 IEnMin= 7 EnMin= -1462.11938427732     IErMin= 7 ErrMin= 1.29D-04
 ErrMax= 1.29D-04  0.00D+00 EMaxC= 1.00D-01 BMatC= 8.41D-05 BMatP= 8.18D-04
 IDIUse=3 WtCom= 9.99D-01 WtEn= 1.29D-03
 Coeff-Com:  0.252D-01-0.342D-01-0.320D-01-0.468D-01-0.472D-01 0.298D+00
 Coeff-Com:  0.837D+00
 Coeff-En:   0.000D+00 0.000D+00 0.000D+00 0.000D+00 0.000D+00 0.000D+00
 Coeff-En:   0.100D+01
 Coeff:      0.252D-01-0.342D-01-0.319D-01-0.467D-01-0.471D-01 0.297D+00
 Coeff:      0.838D+00
 Gap=     0.316 Goal=   None    Shift=    0.000
 Gap=     0.097 Goal=   None    Shift=    0.000
 RMSDP=2.25D-05 MaxDP=1.51D-03 DE=-4.24D-04 OVMax= 1.51D-02

 Cycle   8  Pass 1  IDiag  1:
 RMSU=  1.20D-05    CP:  9.98D-01  2.02D+00  7.98D-01  8.31D-01  1.18D+00
                    CP:  1.83D+00  1.37D+00
 E= -1462.11948449148     Delta-E=       -0.000100214168 Rises=F Damp=F
 DIIS: error= 9.01D-05 at cycle   8 NSaved=   8.
 NSaved= 8 IEnMin= 8 EnMin= -1462.11948449148     IErMin= 8 ErrMin= 9.01D-05
 ErrMax= 9.01D-05  0.00D+00 EMaxC= 1.00D-01 BMatC= 3.11D-05 BMatP= 8.41D-05
 IDIUse=1 WtCom= 1.00D+00 WtEn= 0.00D+00
 Coeff-Com:  0.911D-03-0.938D-03 0.853D-02 0.809D-03-0.540D-01-0.117D+00
 Coeff-Com:  0.349D+00 0.812D+00
 Coeff:      0.911D-03-0.938D-03 0.853D-02 0.809D-03-0.540D-01-0.117D+00
 Coeff:      0.349D+00 0.812D+00
 Gap=     0.316 Goal=   None    Shift=    0.000
 Gap=     0.097 Goal=   None    Shift=    0.000
 RMSDP=1.72D-05 MaxDP=1.49D-03 DE=-1.00D-04 OVMax= 1.37D-02

 Cycle   9  Pass 1  IDiag  1:
 RMSU=  9.01D-06    CP:  9.98D-01  2.01D+00  7.99D-01  8.25D-01  1.18D+00
                    CP:  2.03D+00  1.76D+00  1.40D+00
 E= -1462.11953411086     Delta-E=       -0.000049619378 Rises=F Damp=F
 DIIS: error= 5.70D-05 at cycle   9 NSaved=   9.
 NSaved= 9 IEnMin= 9 EnMin= -1462.11953411086     IErMin= 9 ErrMin= 5.70D-05
 ErrMax= 5.70D-05  0.00D+00 EMaxC= 1.00D-01 BMatC= 2.83D-05 BMatP= 3.11D-05
 IDIUse=1 WtCom= 1.00D+00 WtEn= 0.00D+00
 Coeff-Com: -0.506D-02 0.705D-02 0.107D-01 0.101D-01-0.154D-01-0.148D+00
 Coeff-Com: -0.373D-01 0.594D+00 0.583D+00
 Coeff:     -0.506D-02 0.705D-02 0.107D-01 0.101D-01-0.154D-01-0.148D+00
 Coeff:     -0.373D-01 0.594D+00 0.583D+00
 Gap=     0.316 Goal=   None    Shift=    0.000
 Gap=     0.097 Goal=   None    Shift=    0.000
 RMSDP=1.09D-05 MaxDP=7.33D-04 DE=-4.96D-05 OVMax= 8.45D-03

 Cycle  10  Pass 1  IDiag  1:
 RMSU=  3.69D-06    CP:  9.98D-01  2.01D+00  8.00D-01  8.23D-01  1.19D+00
                    CP:  2.16D+00  1.98D+00  1.85D+00  1.34D+00
 E= -1462.11955979505     Delta-E=       -0.000025684185 Rises=F Damp=F
 DIIS: error= 4.46D-05 at cycle  10 NSaved=  10.
 NSaved=10 IEnMin=10 EnMin= -1462.11955979505     IErMin=10 ErrMin= 4.46D-05
 ErrMax= 4.46D-05  0.00D+00 EMaxC= 1.00D-01 BMatC= 1.02D-05 BMatP= 2.83D-05
 IDIUse=1 WtCom= 1.00D+00 WtEn= 0.00D+00
 Coeff-Com: -0.173D-02 0.228D-02-0.218D-02 0.751D-03 0.165D-01-0.218D-01
 Coeff-Com: -0.186D+00 0.106D+00-0.960D-01 0.118D+01
 Coeff:     -0.173D-02 0.228D-02-0.218D-02 0.751D-03 0.165D-01-0.218D-01
 Coeff:     -0.186D+00 0.106D+00-0.960D-01 0.118D+01
 Gap=     0.315 Goal=   None    Shift=    0.000
 Gap=     0.097 Goal=   None    Shift=    0.000
 RMSDP=1.41D-05 MaxDP=8.95D-04 DE=-2.57D-05 OVMax= 1.04D-02

 Cycle  11  Pass 1  IDiag  1:
 RMSU=  3.59D-06    CP:  9.98D-01  2.01D+00  8.00D-01  8.22D-01  1.20D+00
                    CP:  2.32D+00  2.26D+00  2.37D+00  2.02D+00  1.84D+00
 E= -1462.11958184269     Delta-E=       -0.000022047641 Rises=F Damp=F
 DIIS: error= 3.23D-05 at cycle  11 NSaved=  11.
 NSaved=11 IEnMin=11 EnMin= -1462.11958184269     IErMin=11 ErrMin= 3.23D-05
 ErrMax= 3.23D-05  0.00D+00 EMaxC= 1.00D-01 BMatC= 9.00D-06 BMatP= 1.02D-05
 IDIUse=1 WtCom= 1.00D+00 WtEn= 0.00D+00
 Coeff-Com:  0.128D-02-0.182D-02-0.545D-02-0.421D-02 0.976D-02 0.431D-01
 Coeff-Com: -0.693D-01 0.334D-02-0.599D+00 0.800D+00 0.822D+00
 Coeff:      0.128D-02-0.182D-02-0.545D-02-0.421D-02 0.976D-02 0.431D-01
 Coeff:     -0.693D-01 0.334D-02-0.599D+00 0.800D+00 0.822D+00
 Gap=     0.314 Goal=   None    Shift=    0.000
 Gap=     0.097 Goal=   None    Shift=    0.000
 RMSDP=9.53D-06 MaxDP=5.96D-04 DE=-2.20D-05 OVMax= 6.24D-03

 Cycle  12  Pass 1  IDiag  1:
 RMSU=  1.74D-06    CP:  9.98D-01  2.02D+00  7.99D-01  8.21D-01  1.21D+00
                    CP:  2.40D+00  2.42D+00  2.71D+00  2.50D+00  2.81D+00
                    CP:  1.77D+00
 E= -1462.11959359209     Delta-E=       -0.000011749400 Rises=F Damp=F
 DIIS: error= 3.02D-05 at cycle  12 NSaved=  12.
 NSaved=12 IEnMin=12 EnMin= -1462.11959359209     IErMin=12 ErrMin= 3.02D-05
 ErrMax= 3.02D-05  0.00D+00 EMaxC= 1.00D-01 BMatC= 5.34D-06 BMatP= 9.00D-06
 IDIUse=1 WtCom= 1.00D+00 WtEn= 0.00D+00
 Coeff-Com:  0.113D-02-0.152D-02-0.115D-02-0.174D-02-0.346D-02 0.334D-01
 Coeff-Com:  0.159D-01 0.959D-01-0.520D+00 0.223D+00-0.142D-01 0.117D+01
 Coeff:      0.113D-02-0.152D-02-0.115D-02-0.174D-02-0.346D-02 0.334D-01
 Coeff:      0.159D-01 0.959D-01-0.520D+00 0.223D+00-0.142D-01 0.117D+01
 Gap=     0.314 Goal=   None    Shift=    0.000
 Gap=     0.097 Goal=   None    Shift=    0.000
 RMSDP=9.17D-06 MaxDP=8.49D-04 DE=-1.17D-05 OVMax= 5.11D-03

 Cycle  13  Pass 1  IDiag  1:
 RMSU=  3.31D-06    CP:  9.98D-01  2.02D+00  7.99D-01  8.20D-01  1.22D+00
                    CP:  2.46D+00  2.55D+00  2.99D+00  2.97D+00  3.00D+00
                    CP:  2.89D+00  2.28D+00
 E= -1462.11960303972     Delta-E=       -0.000009447633 Rises=F Damp=F
 DIIS: error= 2.78D-05 at cycle  13 NSaved=  13.
 NSaved=13 IEnMin=13 EnMin= -1462.11960303972     IErMin=13 ErrMin= 2.78D-05
 ErrMax= 2.78D-05  0.00D+00 EMaxC= 1.00D-01 BMatC= 4.81D-06 BMatP= 5.34D-06
 IDIUse=1 WtCom= 1.00D+00 WtEn= 0.00D+00
 Coeff-Com:  0.834D-03-0.109D-02 0.103D-02 0.969D-04-0.612D-02 0.576D-02
 Coeff-Com: -0.709D-02 0.163D+00-0.204D+00 0.154D+00-0.780D+00 0.461D+00
 Coeff-Com:  0.121D+01
 Coeff:      0.834D-03-0.109D-02 0.103D-02 0.969D-04-0.612D-02 0.576D-02
 Coeff:     -0.709D-02 0.163D+00-0.204D+00 0.154D+00-0.780D+00 0.461D+00
 Coeff:      0.121D+01
 Gap=     0.314 Goal=   None    Shift=    0.000
 Gap=     0.097 Goal=   None    Shift=    0.000
 RMSDP=9.59D-06 MaxDP=1.09D-03 DE=-9.45D-06 OVMax= 3.96D-03

 Cycle  14  Pass 1  IDiag  1:
 RMSU=  6.89D-06    CP:  9.98D-01  2.02D+00  7.99D-01  8.19D-01  1.22D+00
                    CP:  2.51D+00  2.66D+00  3.00D+00  3.00D+00  3.00D+00
                    CP:  3.00D+00  3.00D+00  2.31D+00
 E= -1462.11961204150     Delta-E=       -0.000009001781 Rises=F Damp=F
 DIIS: error= 2.60D-05 at cycle  14 NSaved=  14.
 NSaved=14 IEnMin=14 EnMin= -1462.11961204150     IErMin=14 ErrMin= 2.60D-05
 ErrMax= 2.60D-05  0.00D+00 EMaxC= 1.00D-01 BMatC= 3.96D-06 BMatP= 4.81D-06
 IDIUse=1 WtCom= 1.00D+00 WtEn= 0.00D+00
 Coeff-Com:  0.543D-03-0.736D-03-0.187D-03-0.320D-03 0.140D-02-0.307D-02
 Coeff-Com: -0.660D-01 0.120D+00-0.937D-01 0.402D+00-0.385D+00-0.543D+00
 Coeff-Com: -0.490D+00 0.206D+01
 Coeff:      0.543D-03-0.736D-03-0.187D-03-0.320D-03 0.140D-02-0.307D-02
 Coeff:     -0.660D-01 0.120D+00-0.937D-01 0.402D+00-0.385D+00-0.543D+00
 Coeff:     -0.490D+00 0.206D+01
 Gap=     0.313 Goal=   None    Shift=    0.000
 Gap=     0.097 Goal=   None    Shift=    0.000
 RMSDP=1.56D-05 MaxDP=1.97D-03 DE=-9.00D-06 OVMax= 6.66D-03

 Cycle  15  Pass 1  IDiag  1:
 RMSU=  6.05D-06    CP:  9.98D-01  2.02D+00  7.99D-01  8.17D-01  1.22D+00
                    CP:  2.56D+00  2.80D+00  3.00D+00  3.00D+00  3.00D+00
                    CP:  3.00D+00  3.00D+00  3.00D+00  2.82D+00
 E= -1462.11962500743     Delta-E=       -0.000012965928 Rises=F Damp=F
 DIIS: error= 2.31D-05 at cycle  15 NSaved=  15.
 NSaved=15 IEnMin=15 EnMin= -1462.11962500743     IErMin=15 ErrMin= 2.31D-05
 ErrMax= 2.31D-05  0.00D+00 EMaxC= 1.00D-01 BMatC= 2.90D-06 BMatP= 3.96D-06
 IDIUse=1 WtCom= 1.00D+00 WtEn= 0.00D+00
 Coeff-Com: -0.543D-04 0.674D-04-0.514D-03-0.350D-03 0.436D-02 0.249D-02
 Coeff-Com: -0.602D-01 0.520D-01-0.174D+00 0.381D+00 0.299D+00-0.342D+00
 Coeff-Com: -0.156D+01 0.566D+00 0.183D+01
 Coeff:     -0.543D-04 0.674D-04-0.514D-03-0.350D-03 0.436D-02 0.249D-02
 Coeff:     -0.602D-01 0.520D-01-0.174D+00 0.381D+00 0.299D+00-0.342D+00
 Coeff:     -0.156D+01 0.566D+00 0.183D+01
 Gap=     0.313 Goal=   None    Shift=    0.000
 Gap=     0.097 Goal=   None    Shift=    0.000
 RMSDP=2.31D-05 MaxDP=3.05D-03 DE=-1.30D-05 OVMax= 1.03D-02

 Cycle  16  Pass 1  IDiag  1:
 RMSU=  1.72D-05    CP:  9.98D-01  2.01D+00  7.99D-01  8.15D-01  1.23D+00
                    CP:  2.62D+00  2.99D+00  3.00D+00  3.00D+00  3.00D+00
                    CP:  3.00D+00  3.00D+00  3.00D+00  3.00D+00  3.00D+00
 E= -1462.11964056332     Delta-E=       -0.000015555886 Rises=F Damp=F
 DIIS: error= 1.87D-05 at cycle  16 NSaved=  16.
 NSaved=16 IEnMin=16 EnMin= -1462.11964056332     IErMin=16 ErrMin= 1.87D-05
 ErrMax= 1.87D-05  0.00D+00 EMaxC= 1.00D-01 BMatC= 1.62D-06 BMatP= 2.90D-06
 IDIUse=1 WtCom= 1.00D+00 WtEn= 0.00D+00
 Coeff-Com:  0.192D-03-0.253D-03-0.392D-05-0.628D-03-0.258D-03 0.150D-01
 Coeff-Com:  0.140D-01 0.109D-01-0.218D+00 0.153D-01 0.328D+00 0.654D+00
 Coeff-Com: -0.357D+00-0.214D+01 0.111D+01 0.157D+01
 Coeff:      0.192D-03-0.253D-03-0.392D-05-0.628D-03-0.258D-03 0.150D-01
 Coeff:      0.140D-01 0.109D-01-0.218D+00 0.153D-01 0.328D+00 0.654D+00
 Coeff:     -0.357D+00-0.214D+01 0.111D+01 0.157D+01
 Gap=     0.312 Goal=   None    Shift=    0.000
 Gap=     0.096 Goal=   None    Shift=    0.000
 RMSDP=3.05D-05 MaxDP=4.09D-03 DE=-1.56D-05 OVMax= 1.38D-02

 Cycle  17  Pass 1  IDiag  1:
 RMSU=  1.78D-05    CP:  9.98D-01  2.01D+00  7.99D-01  8.12D-01  1.24D+00
                    CP:  2.69D+00  3.00D+00  3.00D+00  3.00D+00  3.00D+00
                    CP:  3.00D+00  3.00D+00  3.00D+00  3.00D+00  3.00D+00
                    CP:  2.42D+00
 E= -1462.11965421801     Delta-E=       -0.000013654692 Rises=F Damp=F
 DIIS: error= 1.12D-05 at cycle  17 NSaved=  17.
 NSaved=17 IEnMin=17 EnMin= -1462.11965421801     IErMin=17 ErrMin= 1.12D-05
 ErrMax= 1.12D-05  0.00D+00 EMaxC= 1.00D-01 BMatC= 4.78D-07 BMatP= 1.62D-06
 IDIUse=1 WtCom= 1.00D+00 WtEn= 0.00D+00
 Coeff-Com:  0.305D-03-0.398D-03 0.623D-03-0.404D-03-0.136D-02 0.346D-02
 Coeff-Com:  0.266D-01 0.155D-01-0.364D-01-0.103D+00-0.133D+00 0.514D+00
 Coeff-Com:  0.503D+00-0.112D+01-0.323D+00 0.522D+00 0.113D+01
 Coeff:      0.305D-03-0.398D-03 0.623D-03-0.404D-03-0.136D-02 0.346D-02
 Coeff:      0.266D-01 0.155D-01-0.364D-01-0.103D+00-0.133D+00 0.514D+00
 Coeff:      0.503D+00-0.112D+01-0.323D+00 0.522D+00 0.113D+01
 Gap=     0.312 Goal=   None    Shift=    0.000
 Gap=     0.096 Goal=   None    Shift=    0.000
 RMSDP=1.70D-05 MaxDP=2.32D-03 DE=-1.37D-05 OVMax= 7.69D-03

 Cycle  18  Pass 1  IDiag  1:
 RMSU=  3.73D-06    CP:  9.98D-01  2.01D+00  7.98D-01  8.10D-01  1.24D+00
                    CP:  2.71D+00  3.00D+00  3.00D+00  3.00D+00  3.00D+00
                    CP:  3.00D+00  3.00D+00  3.00D+00  3.00D+00  3.00D+00
                    CP:  3.00D+00  1.57D+00
 E= -1462.11965841065     Delta-E=       -0.000004192638 Rises=F Damp=F
 DIIS: error= 6.61D-06 at cycle  18 NSaved=  18.
 NSaved=18 IEnMin=18 EnMin= -1462.11965841065     IErMin=18 ErrMin= 6.61D-06
 ErrMax= 6.61D-06  0.00D+00 EMaxC= 1.00D-01 BMatC= 1.60D-07 BMatP= 4.78D-07
 IDIUse=1 WtCom= 1.00D+00 WtEn= 0.00D+00
 Coeff-Com:  0.952D-04-0.118D-03 0.376D-03 0.684D-06 0.851D-03-0.495D-02
 Coeff-Com:  0.335D-03 0.126D-01 0.692D-01-0.162D-01-0.217D+00-0.447D-01
 Coeff-Com:  0.247D+00 0.506D+00-0.492D+00-0.556D+00 0.341D+00 0.115D+01
 Coeff:      0.952D-04-0.118D-03 0.376D-03 0.684D-06 0.851D-03-0.495D-02
 Coeff:      0.335D-03 0.126D-01 0.692D-01-0.162D-01-0.217D+00-0.447D-01
 Coeff:      0.247D+00 0.506D+00-0.492D+00-0.556D+00 0.341D+00 0.115D+01
 Gap=     0.312 Goal=   None    Shift=    0.000
 Gap=     0.096 Goal=   None    Shift=    0.000
 RMSDP=9.46D-06 MaxDP=1.31D-03 DE=-4.19D-06 OVMax= 4.36D-03

 Cycle  19  Pass 1  IDiag  1:
 RMSU=  1.17D-06    CP:  9.98D-01  2.01D+00  7.98D-01  8.08D-01  1.24D+00
                    CP:  2.72D+00  3.00D+00  3.00D+00  3.00D+00  3.00D+00
                    CP:  3.00D+00  3.00D+00  3.00D+00  3.00D+00  3.00D+00
                    CP:  3.00D+00  1.90D+00  2.97D+00
 E= -1462.11965967884     Delta-E=       -0.000001268192 Rises=F Damp=F
 DIIS: error= 3.87D-06 at cycle  19 NSaved=  19.
 NSaved=19 IEnMin=19 EnMin= -1462.11965967884     IErMin=19 ErrMin= 3.87D-06
 ErrMax= 3.87D-06  0.00D+00 EMaxC= 1.00D-01 BMatC= 5.25D-08 BMatP= 1.60D-07
 IDIUse=1 WtCom= 1.00D+00 WtEn= 0.00D+00
 Coeff-Com:  0.114D-03-0.155D-03-0.206D-03 0.213D-04 0.123D-03-0.345D-03
 Coeff-Com: -0.997D-02 0.361D-02 0.465D-02 0.356D-01 0.104D-01-0.167D+00
 Coeff-Com: -0.143D+00 0.396D+00 0.730D-01-0.259D+00-0.367D+00 0.281D+00
 Coeff-Com:  0.114D+01
 Coeff:      0.114D-03-0.155D-03-0.206D-03 0.213D-04 0.123D-03-0.345D-03
 Coeff:     -0.997D-02 0.361D-02 0.465D-02 0.356D-01 0.104D-01-0.167D+00
 Coeff:     -0.143D+00 0.396D+00 0.730D-01-0.259D+00-0.367D+00 0.281D+00
 Coeff:      0.114D+01
 Gap=     0.312 Goal=   None    Shift=    0.000
 Gap=     0.096 Goal=   None    Shift=    0.000
 RMSDP=6.69D-06 MaxDP=8.82D-04 DE=-1.27D-06 OVMax= 3.18D-03

 Cycle  20  Pass 1  IDiag  1:
 RMSU=  5.13D-06    CP:  9.98D-01  2.01D+00  7.98D-01  8.08D-01  1.24D+00
                    CP:  2.73D+00  3.00D+00  3.00D+00  3.00D+00  3.00D+00
                    CP:  3.00D+00  3.00D+00  3.00D+00  3.00D+00  3.00D+00
                    CP:  3.00D+00  2.12D+00  3.00D+00  1.87D+00
 E= -1462.11966007966     Delta-E=       -0.000000400823 Rises=F Damp=F
 DIIS: error= 2.86D-06 at cycle  20 NSaved=  20.
 NSaved=20 IEnMin=20 EnMin= -1462.11966007966     IErMin=20 ErrMin= 2.86D-06
 ErrMax= 2.86D-06  0.00D+00 EMaxC= 1.00D-01 BMatC= 1.65D-08 BMatP= 5.25D-08
 IDIUse=1 WtCom= 1.00D+00 WtEn= 0.00D+00
 Coeff-Com:  0.153D-04-0.232D-04-0.749D-04 0.108D-03-0.970D-04 0.113D-02
 Coeff-Com: -0.350D-02-0.142D-02-0.165D-01 0.173D-01 0.605D-01-0.432D-01
 Coeff-Com: -0.112D+00-0.306D-01 0.198D+00 0.785D-01-0.230D+00-0.267D+00
 Coeff-Com:  0.303D+00 0.105D+01
 Coeff:      0.153D-04-0.232D-04-0.749D-04 0.108D-03-0.970D-04 0.113D-02
 Coeff:     -0.350D-02-0.142D-02-0.165D-01 0.173D-01 0.605D-01-0.432D-01
 Coeff:     -0.112D+00-0.306D-01 0.198D+00 0.785D-01-0.230D+00-0.267D+00
 Coeff:      0.303D+00 0.105D+01
 Gap=     0.312 Goal=   None    Shift=    0.000
 Gap=     0.096 Goal=   None    Shift=    0.000
 RMSDP=1.50D-06 MaxDP=1.89D-04 DE=-4.01D-07 OVMax= 8.15D-04

 Cycle  21  Pass 1  IDiag  1:
 Restarting incremental Fock formation.
 E= -1462.11966013880     Delta-E=       -0.000000059143 Rises=F Damp=F
 DIIS: error= 2.15D-06 at cycle  21 NSaved=  20.
 NSaved=20 IEnMin=20 EnMin= -1462.11966013880     IErMin=20 ErrMin= 2.15D-06
 ErrMax= 2.15D-06  0.00D+00 EMaxC= 1.00D-01 BMatC= 7.20D-09 BMatP= 1.65D-08
 IDIUse=1 WtCom= 1.00D+00 WtEn= 0.00D+00
 Coeff-Com:  0.841D-06 0.787D-04 0.128D-04-0.135D-03 0.111D-02 0.425D-02
 Coeff-Com: -0.374D-02-0.138D-01-0.120D-01 0.284D-01 0.838D-01 0.243D-01
 Coeff-Com: -0.288D+00 0.861D-01 0.195D+00 0.101D+00-0.265D+00-0.480D+00
 Coeff-Com:  0.472D+00 0.107D+01
 Coeff:      0.841D-06 0.787D-04 0.128D-04-0.135D-03 0.111D-02 0.425D-02
 Coeff:     -0.374D-02-0.138D-01-0.120D-01 0.284D-01 0.838D-01 0.243D-01
 Coeff:     -0.288D+00 0.861D-01 0.195D+00 0.101D+00-0.265D+00-0.480D+00
 Coeff:      0.472D+00 0.107D+01
 Gap=     0.312 Goal=   None    Shift=    0.000
 Gap=     0.096 Goal=   None    Shift=    0.000
 RMSDP=8.38D-07 MaxDP=8.48D-05 DE=-5.91D-08 OVMax= 4.75D-04

 Cycle  22  Pass 1  IDiag  1:
 RMSU=  8.38D-07    CP:  1.00D+00
 E= -1462.11966016266     Delta-E=       -0.000000023859 Rises=F Damp=F
 DIIS: error= 1.11D-06 at cycle  22 NSaved=  20.
 NSaved=20 IEnMin=20 EnMin= -1462.11966016266     IErMin=20 ErrMin= 1.11D-06
 ErrMax= 1.11D-06  0.00D+00 EMaxC= 1.00D-01 BMatC= 1.85D-09 BMatP= 7.20D-09
 IDIUse=1 WtCom= 1.00D+00 WtEn= 0.00D+00
 Coeff-Com:  0.548D-04-0.137D-04 0.103D-03-0.112D-03 0.188D-02-0.149D-02
 Coeff-Com:  0.254D-02-0.711D-02-0.111D-01 0.323D-01 0.365D-01-0.606D-01
 Coeff-Com: -0.252D-01 0.151D-01 0.101D+00 0.612D-02-0.271D+00-0.123D+00
 Coeff-Com:  0.310D+00 0.994D+00
 Coeff:      0.548D-04-0.137D-04 0.103D-03-0.112D-03 0.188D-02-0.149D-02
 Coeff:      0.254D-02-0.711D-02-0.111D-01 0.323D-01 0.365D-01-0.606D-01
 Coeff:     -0.252D-01 0.151D-01 0.101D+00 0.612D-02-0.271D+00-0.123D+00
 Coeff:      0.310D+00 0.994D+00
 Gap=     0.312 Goal=   None    Shift=    0.000
 Gap=     0.096 Goal=   None    Shift=    0.000
 RMSDP=3.27D-07 MaxDP=2.69D-05 DE=-2.39D-08 OVMax= 2.00D-04

 Cycle  23  Pass 1  IDiag  1:
 RMSU=  9.96D-08    CP:  1.00D+00  1.37D+00
 E= -1462.11966016866     Delta-E=       -0.000000005996 Rises=F Damp=F
 DIIS: error= 7.03D-07 at cycle  23 NSaved=  20.
 NSaved=20 IEnMin=20 EnMin= -1462.11966016866     IErMin=20 ErrMin= 7.03D-07
 ErrMax= 7.03D-07  0.00D+00 EMaxC= 1.00D-01 BMatC= 6.46D-10 BMatP= 1.85D-09
 IDIUse=1 WtCom= 1.00D+00 WtEn= 0.00D+00
 Coeff-Com:  0.471D-05 0.509D-04-0.437D-03-0.100D-02 0.980D-03 0.627D-02
 Coeff-Com:  0.134D-02-0.117D-01-0.212D-01 0.594D-02 0.754D-01-0.371D-01
 Coeff-Com: -0.645D-01 0.309D-02 0.981D-01 0.859D-01-0.201D+00-0.339D+00
 Coeff-Com:  0.371D+00 0.103D+01
 Coeff:      0.471D-05 0.509D-04-0.437D-03-0.100D-02 0.980D-03 0.627D-02
 Coeff:      0.134D-02-0.117D-01-0.212D-01 0.594D-02 0.754D-01-0.371D-01
 Coeff:     -0.645D-01 0.309D-02 0.981D-01 0.859D-01-0.201D+00-0.339D+00
 Coeff:      0.371D+00 0.103D+01
 Gap=     0.312 Goal=   None    Shift=    0.000
 Gap=     0.096 Goal=   None    Shift=    0.000
 RMSDP=1.80D-07 MaxDP=1.40D-05 DE=-6.00D-09 OVMax= 1.18D-04

 Cycle  24  Pass 1  IDiag  1:
 RMSU=  4.74D-08    CP:  1.00D+00  1.56D+00  1.63D+00
 E= -1462.11966017058     Delta-E=       -0.000000001919 Rises=F Damp=F
 DIIS: error= 3.52D-07 at cycle  24 NSaved=  20.
 NSaved=20 IEnMin=20 EnMin= -1462.11966017058     IErMin=20 ErrMin= 3.52D-07
 ErrMax= 3.52D-07  0.00D+00 EMaxC= 1.00D-01 BMatC= 1.88D-10 BMatP= 6.46D-10
 IDIUse=1 WtCom= 1.00D+00 WtEn= 0.00D+00
 Coeff-Com: -0.385D-04-0.266D-05-0.366D-03 0.260D-03 0.506D-03 0.659D-03
 Coeff-Com:  0.220D-02-0.853D-02-0.165D-02 0.140D-01-0.332D-02-0.896D-02
 Coeff-Com: -0.903D-02 0.118D-01 0.464D-01-0.353D-03-0.115D+00-0.142D+00
 Coeff-Com:  0.156D+00 0.106D+01
 Coeff:     -0.385D-04-0.266D-05-0.366D-03 0.260D-03 0.506D-03 0.659D-03
 Coeff:      0.220D-02-0.853D-02-0.165D-02 0.140D-01-0.332D-02-0.896D-02
 Coeff:     -0.903D-02 0.118D-01 0.464D-01-0.353D-03-0.115D+00-0.142D+00
 Coeff:      0.156D+00 0.106D+01
 Gap=     0.312 Goal=   None    Shift=    0.000
 Gap=     0.096 Goal=   None    Shift=    0.000
 RMSDP=9.21D-08 MaxDP=7.34D-06 DE=-1.92D-09 OVMax= 6.00D-05

 Cycle  25  Pass 1  IDiag  1:
 RMSU=  2.52D-08    CP:  1.00D+00  1.66D+00  1.91D+00  1.74D+00
 E= -1462.11966017123     Delta-E=       -0.000000000653 Rises=F Damp=F
 DIIS: error= 2.05D-07 at cycle  25 NSaved=  20.
 NSaved=20 IEnMin=20 EnMin= -1462.11966017123     IErMin=20 ErrMin= 2.05D-07
 ErrMax= 2.05D-07  0.00D+00 EMaxC= 1.00D-01 BMatC= 9.32D-11 BMatP= 1.88D-10
 IDIUse=1 WtCom= 1.00D+00 WtEn= 0.00D+00
 Coeff-Com:  0.155D-03-0.490D-04-0.305D-03-0.144D-02 0.451D-03 0.495D-02
 Coeff-Com: -0.108D-03-0.411D-02-0.128D-01 0.127D-01 0.152D-01-0.973D-02
 Coeff-Com: -0.307D-01-0.798D-02 0.816D-01 0.779D-01-0.195D+00-0.335D+00
 Coeff-Com:  0.329D+00 0.108D+01
 Coeff:      0.155D-03-0.490D-04-0.305D-03-0.144D-02 0.451D-03 0.495D-02
 Coeff:     -0.108D-03-0.411D-02-0.128D-01 0.127D-01 0.152D-01-0.973D-02
 Coeff:     -0.307D-01-0.798D-02 0.816D-01 0.779D-01-0.195D+00-0.335D+00
 Coeff:      0.329D+00 0.108D+01
 Gap=     0.312 Goal=   None    Shift=    0.000
 Gap=     0.096 Goal=   None    Shift=    0.000
 RMSDP=6.46D-08 MaxDP=4.95D-06 DE=-6.53D-10 OVMax= 3.84D-05

 Cycle  26  Pass 1  IDiag  1:
 RMSU=  1.56D-08    CP:  1.00D+00  1.71D+00  2.11D+00  2.40D+00  2.06D+00
 E= -1462.11966017146     Delta-E=       -0.000000000228 Rises=F Damp=F
 DIIS: error= 1.16D-07 at cycle  26 NSaved=  20.
 NSaved=20 IEnMin=20 EnMin= -1462.11966017146     IErMin=20 ErrMin= 1.16D-07
 ErrMax= 1.16D-07  0.00D+00 EMaxC= 1.00D-01 BMatC= 3.13D-11 BMatP= 9.32D-11
 IDIUse=1 WtCom= 1.00D+00 WtEn= 0.00D+00
 Coeff-Com: -0.613D-04-0.173D-03-0.414D-03 0.736D-03 0.166D-02-0.833D-04
 Coeff-Com: -0.398D-02-0.197D-02 0.451D-02 0.329D-02-0.980D-03-0.713D-02
 Coeff-Com: -0.123D-01 0.114D-01 0.363D-01 0.236D-01-0.977D-01-0.329D+00
 Coeff-Com:  0.214D+00 0.116D+01
 Coeff:     -0.613D-04-0.173D-03-0.414D-03 0.736D-03 0.166D-02-0.833D-04
 Coeff:     -0.398D-02-0.197D-02 0.451D-02 0.329D-02-0.980D-03-0.713D-02
 Coeff:     -0.123D-01 0.114D-01 0.363D-01 0.236D-01-0.977D-01-0.329D+00
 Coeff:      0.214D+00 0.116D+01
 Gap=     0.312 Goal=   None    Shift=    0.000
 Gap=     0.096 Goal=   None    Shift=    0.000
 RMSDP=8.09D-08 MaxDP=9.75D-06 DE=-2.28D-10 OVMax= 4.54D-05

 Cycle  27  Pass 1  IDiag  1:
 RMSU=  1.25D-08    CP:  1.00D+00  1.79D+00  2.02D+00  2.93D+00  3.00D+00
                    CP:  1.49D+00
 E= -1462.11966017165     Delta-E=       -0.000000000186 Rises=F Damp=F
 DIIS: error= 5.95D-08 at cycle  27 NSaved=  20.
 NSaved=20 IEnMin=20 EnMin= -1462.11966017165     IErMin=20 ErrMin= 5.95D-08
 ErrMax= 5.95D-08  0.00D+00 EMaxC= 1.00D-01 BMatC= 1.10D-11 BMatP= 3.13D-11
 IDIUse=1 WtCom= 1.00D+00 WtEn= 0.00D+00
 Coeff-Com: -0.185D-04 0.273D-03-0.115D-03-0.131D-02 0.518D-03 0.632D-03
 Coeff-Com:  0.266D-02-0.266D-02-0.306D-02 0.374D-02 0.768D-02-0.907D-03
 Coeff-Com: -0.251D-01-0.149D-01 0.807D-01 0.984D-01-0.236D+00-0.362D+00
 Coeff-Com:  0.386D+00 0.107D+01
 Coeff:     -0.185D-04 0.273D-03-0.115D-03-0.131D-02 0.518D-03 0.632D-03
 Coeff:      0.266D-02-0.266D-02-0.306D-02 0.374D-02 0.768D-02-0.907D-03
 Coeff:     -0.251D-01-0.149D-01 0.807D-01 0.984D-01-0.236D+00-0.362D+00
 Coeff:      0.386D+00 0.107D+01
 Gap=     0.312 Goal=   None    Shift=    0.000
 Gap=     0.096 Goal=   None    Shift=    0.000
 RMSDP=3.05D-08 MaxDP=3.48D-06 DE=-1.86D-10 OVMax= 1.52D-05

 Cycle  28  Pass 1  IDiag  1:
 RMSU=  1.22D-08    CP:  1.00D+00  1.76D+00  2.19D+00  3.00D+00  3.00D+00
                    CP:  1.62D+00  6.52D-01
 E= -1462.11966017169     Delta-E=       -0.000000000043 Rises=F Damp=F
 DIIS: error= 3.12D-08 at cycle  28 NSaved=  20.
 NSaved=20 IEnMin=20 EnMin= -1462.11966017169     IErMin=20 ErrMin= 3.12D-08
 ErrMax= 3.12D-08  0.00D+00 EMaxC= 1.00D-01 BMatC= 2.98D-12 BMatP= 1.10D-11
 IDIUse=1 WtCom= 1.00D+00 WtEn= 0.00D+00
 Coeff-Com:  0.369D-03-0.296D-03-0.905D-03-0.112D-05 0.111D-02 0.207D-02
 Coeff-Com: -0.251D-02-0.255D-02 0.197D-02 0.543D-02 0.351D-02-0.152D-01
 Coeff-Com: -0.173D-01 0.309D-01 0.750D-01-0.145D-01-0.226D+00-0.154D+00
 Coeff-Com:  0.432D+00 0.882D+00
 Coeff:      0.369D-03-0.296D-03-0.905D-03-0.112D-05 0.111D-02 0.207D-02
 Coeff:     -0.251D-02-0.255D-02 0.197D-02 0.543D-02 0.351D-02-0.152D-01
 Coeff:     -0.173D-01 0.309D-01 0.750D-01-0.145D-01-0.226D+00-0.154D+00
 Coeff:      0.432D+00 0.882D+00
 Gap=     0.312 Goal=   None    Shift=    0.000
 Gap=     0.096 Goal=   None    Shift=    0.000
 RMSDP=1.59D-08 MaxDP=2.02D-06 DE=-4.27D-11 OVMax= 7.61D-06

 Cycle  29  Pass 1  IDiag  1:
 RMSU=  5.54D-09    CP:  1.00D+00  1.78D+00  2.16D+00  3.00D+00  3.00D+00
                    CP:  1.72D+00  1.12D+00  1.27D+00
 E= -1462.11966017166     Delta-E=        0.000000000025 Rises=F Damp=F
 DIIS: error= 1.24D-08 at cycle  29 NSaved=  20.
 NSaved=20 IEnMin=19 EnMin= -1462.11966017169     IErMin=20 ErrMin= 1.24D-08
 ErrMax= 1.24D-08  0.00D+00 EMaxC= 1.00D-01 BMatC= 1.10D-12 BMatP= 2.98D-12
 IDIUse=1 WtCom= 1.00D+00 WtEn= 0.00D+00
 Coeff-Com: -0.237D-04 0.435D-03-0.738D-04-0.515D-03-0.629D-03 0.114D-02
 Coeff-Com:  0.702D-03-0.132D-02-0.186D-02 0.228D-02 0.395D-02-0.223D-03
 Coeff-Com: -0.195D-01-0.864D-02 0.658D-01 0.387D-01-0.131D+00-0.164D+00
 Coeff-Com:  0.180D+00 0.104D+01
 Coeff:     -0.237D-04 0.435D-03-0.738D-04-0.515D-03-0.629D-03 0.114D-02
 Coeff:      0.702D-03-0.132D-02-0.186D-02 0.228D-02 0.395D-02-0.223D-03
 Coeff:     -0.195D-01-0.864D-02 0.658D-01 0.387D-01-0.131D+00-0.164D+00
 Coeff:      0.180D+00 0.104D+01
 Gap=     0.312 Goal=   None    Shift=    0.000
 Gap=     0.096 Goal=   None    Shift=    0.000
 RMSDP=1.64D-08 MaxDP=1.95D-06 DE= 2.46D-11 OVMax= 7.19D-06

 Cycle  30  Pass 1  IDiag  1:
 RMSU=  3.00D-09    CP:  1.00D+00  1.76D+00  2.23D+00  3.00D+00  3.00D+00
                    CP:  1.82D+00  8.03D-01  1.47D+00  7.50D-01
 E= -1462.11966017156     Delta-E=        0.000000000107 Rises=F Damp=F
 DIIS: error= 6.83D-09 at cycle  30 NSaved=  20.
 NSaved=20 IEnMin=18 EnMin= -1462.11966017169     IErMin=20 ErrMin= 6.83D-09
 ErrMax= 6.83D-09  0.00D+00 EMaxC= 1.00D-01 BMatC= 3.97D-13 BMatP= 1.10D-12
 IDIUse=1 WtCom= 1.00D+00 WtEn= 0.00D+00
 Coeff-Com:  0.913D-04 0.164D-04 0.246D-05-0.490D-03 0.289D-03 0.449D-03
 Coeff-Com: -0.221D-03-0.102D-02-0.735D-04 0.275D-02 0.207D-02-0.875D-02
 Coeff-Com: -0.124D-01 0.239D-01 0.427D-01-0.293D-01-0.123D+00-0.406D-01
 Coeff-Com:  0.459D+00 0.684D+00
 Coeff:      0.913D-04 0.164D-04 0.246D-05-0.490D-03 0.289D-03 0.449D-03
 Coeff:     -0.221D-03-0.102D-02-0.735D-04 0.275D-02 0.207D-02-0.875D-02
 Coeff:     -0.124D-01 0.239D-01 0.427D-01-0.293D-01-0.123D+00-0.406D-01
 Coeff:      0.459D+00 0.684D+00
 Gap=     0.312 Goal=   None    Shift=    0.000
 Gap=     0.096 Goal=   None    Shift=    0.000
 RMSDP=5.30D-09 MaxDP=6.53D-07 DE= 1.07D-10 OVMax= 2.37D-06

 Error on total polarization charges =  0.00657
 SCF Done:  E(UCAM-B3LYP) =  -1462.11966017     A.U. after   30 cycles
            NFock= 30  Conv=0.53D-08     -V/T= 2.0096
 <Sx>= 0.0000 <Sy>= 0.0000 <Sz>= 0.5000 <S**2>= 0.7713 S= 0.5106
 <L.S>= 0.000000000000E+00
 KE= 1.448237282949D+03 PE=-1.081951614233D+04 EE= 4.182418752430D+03
 Annihilation of the first spin contaminant:
 S**2 before annihilation     0.7713,   after     0.7502
 Leave Link  502 at Mon Mar  4 23:41:10 2024, MaxMem=  5368709120 cpu:      5131.7
 (Enter /home/k0335/k033513/app/g09/l601.exe)
 Copying SCF densities to generalized density rwf, IOpCl= 1 IROHF=0.

 **********************************************************************

            Population analysis using the SCF density.

 **********************************************************************

 Alpha  occ. eigenvalues --  -19.30711 -19.28103 -19.27968 -14.60479 -14.56184
 Alpha  occ. eigenvalues --  -10.49106 -10.40913 -10.40410 -10.39833 -10.39798
 Alpha  occ. eigenvalues --  -10.38720 -10.36693 -10.35093 -10.34847 -10.33660
 Alpha  occ. eigenvalues --  -10.33491 -10.33266 -10.32619 -10.32330 -10.32264
 Alpha  occ. eigenvalues --  -10.31888 -10.31814 -10.31775 -10.31718 -10.31621
 Alpha  occ. eigenvalues --  -10.30876 -10.30770 -10.30369 -10.30309 -10.30052
 Alpha  occ. eigenvalues --  -10.30009 -10.29794 -10.29261 -10.29068  -1.23834
 Alpha  occ. eigenvalues --   -1.19057  -1.15449  -1.14374  -1.11500  -1.00389
 Alpha  occ. eigenvalues --   -0.98398  -0.97606  -0.96279  -0.95087  -0.93958
 Alpha  occ. eigenvalues --   -0.91415  -0.90140  -0.88791  -0.88139  -0.86283
 Alpha  occ. eigenvalues --   -0.86098  -0.85006  -0.83517  -0.81909  -0.81168
 Alpha  occ. eigenvalues --   -0.80517  -0.79746  -0.77454  -0.75695  -0.73785
 Alpha  occ. eigenvalues --   -0.72093  -0.71975  -0.71172  -0.69816  -0.68845
 Alpha  occ. eigenvalues --   -0.67945  -0.67023  -0.66037  -0.64613  -0.64229
 Alpha  occ. eigenvalues --   -0.63258  -0.62866  -0.61949  -0.60950  -0.60591
 Alpha  occ. eigenvalues --   -0.60118  -0.59894  -0.58760  -0.58478  -0.58126
 Alpha  occ. eigenvalues --   -0.57839  -0.57045  -0.56657  -0.56269  -0.55915
 Alpha  occ. eigenvalues --   -0.55723  -0.55383  -0.54181  -0.54033  -0.53728
 Alpha  occ. eigenvalues --   -0.53495  -0.52981  -0.52408  -0.52190  -0.51310
 Alpha  occ. eigenvalues --   -0.51171  -0.50933  -0.50617  -0.50093  -0.49585
 Alpha  occ. eigenvalues --   -0.49461  -0.49047  -0.48590  -0.48372  -0.47806
 Alpha  occ. eigenvalues --   -0.47505  -0.47165  -0.46833  -0.46169  -0.45765
 Alpha  occ. eigenvalues --   -0.45227  -0.44880  -0.44387  -0.44184  -0.43843
 Alpha  occ. eigenvalues --   -0.42808  -0.41763  -0.40097  -0.39980  -0.37324
 Alpha  occ. eigenvalues --   -0.36197  -0.35691  -0.35119  -0.34222  -0.33396
 Alpha virt. eigenvalues --   -0.02228  -0.01495  -0.01029  -0.00169   0.00373
 Alpha virt. eigenvalues --    0.00871   0.01290   0.04168   0.04838   0.06113
 Alpha virt. eigenvalues --    0.06725   0.07276   0.08129   0.09063   0.09746
 Alpha virt. eigenvalues --    0.09958   0.10710   0.11153   0.11488   0.12306
 Alpha virt. eigenvalues --    0.12525   0.13187   0.13472   0.13558   0.14043
 Alpha virt. eigenvalues --    0.14361   0.15335   0.15528   0.15915   0.16182
 Alpha virt. eigenvalues --    0.16382   0.16580   0.16890   0.17282   0.17526
 Alpha virt. eigenvalues --    0.17616   0.18471   0.18532   0.18653   0.18985
 Alpha virt. eigenvalues --    0.19215   0.19311   0.19585   0.20174   0.20409
 Alpha virt. eigenvalues --    0.20706   0.20929   0.21652   0.21924   0.22242
 Alpha virt. eigenvalues --    0.22730   0.23007   0.23525   0.23832   0.24217
 Alpha virt. eigenvalues --    0.24757   0.25471   0.25810   0.25982   0.26382
 Alpha virt. eigenvalues --    0.27354   0.28049   0.28808   0.29508   0.29616
 Alpha virt. eigenvalues --    0.31311   0.31807   0.32356   0.32940   0.33327
 Alpha virt. eigenvalues --    0.34052   0.34234   0.35094   0.36325   0.37227
 Alpha virt. eigenvalues --    0.37518   0.39342   0.42471   0.43963   0.46079
 Alpha virt. eigenvalues --    0.46281   0.47166   0.48010   0.48564   0.49162
 Alpha virt. eigenvalues --    0.49665   0.51023   0.51761   0.52246   0.53205
 Alpha virt. eigenvalues --    0.53324   0.53711   0.53967   0.54300   0.55018
 Alpha virt. eigenvalues --    0.55032   0.55219   0.55791   0.56136   0.56377
 Alpha virt. eigenvalues --    0.56702   0.57029   0.57573   0.57904   0.57919
 Alpha virt. eigenvalues --    0.58342   0.59293   0.59514   0.60476   0.60804
 Alpha virt. eigenvalues --    0.61040   0.61456   0.61527   0.62039   0.62187
 Alpha virt. eigenvalues --    0.62215   0.62394   0.62610   0.62710   0.63190
 Alpha virt. eigenvalues --    0.63505   0.63827   0.64186   0.64248   0.64833
 Alpha virt. eigenvalues --    0.65001   0.65842   0.66114   0.66933   0.67255
 Alpha virt. eigenvalues --    0.67649   0.68249   0.69041   0.70412   0.70892
 Alpha virt. eigenvalues --    0.71084   0.71553   0.72195   0.72704   0.72870
 Alpha virt. eigenvalues --    0.73301   0.74144   0.74580   0.75058   0.75485
 Alpha virt. eigenvalues --    0.76760   0.77785   0.78193   0.78301   0.79140
 Alpha virt. eigenvalues --    0.79382   0.80116   0.80402   0.81109   0.81850
 Alpha virt. eigenvalues --    0.82013   0.82255   0.83836   0.83911   0.83979
 Alpha virt. eigenvalues --    0.84221   0.84546   0.84939   0.85597   0.85988
 Alpha virt. eigenvalues --    0.86401   0.87105   0.87405   0.87672   0.87769
 Alpha virt. eigenvalues --    0.88558   0.88990   0.89256   0.89744   0.90415
 Alpha virt. eigenvalues --    0.90570   0.91096   0.91216   0.91668   0.92256
 Alpha virt. eigenvalues --    0.92567   0.92745   0.93418   0.93822   0.94361
 Alpha virt. eigenvalues --    0.94739   0.95043   0.95647   0.95906   0.96296
 Alpha virt. eigenvalues --    0.96487   0.96967   0.97246   0.97506   0.97999
 Alpha virt. eigenvalues --    0.98739   0.99517   0.99999   1.00589   1.01472
 Alpha virt. eigenvalues --    1.02062   1.03178   1.03625   1.04473   1.04774
 Alpha virt. eigenvalues --    1.06109   1.06615   1.06829   1.08564   1.09571
 Alpha virt. eigenvalues --    1.10134   1.11034   1.11446   1.12303   1.13565
 Alpha virt. eigenvalues --    1.13960   1.15253   1.15491   1.17090   1.17360
 Alpha virt. eigenvalues --    1.18091   1.18821   1.18983   1.19553   1.20015
 Alpha virt. eigenvalues --    1.20642   1.21544   1.22689   1.24146   1.24493
 Alpha virt. eigenvalues --    1.25492   1.27451   1.27756   1.29007   1.29053
 Alpha virt. eigenvalues --    1.29685   1.30874   1.31536   1.32169   1.32635
 Alpha virt. eigenvalues --    1.33181   1.34058   1.34723   1.35271   1.36608
 Alpha virt. eigenvalues --    1.37275   1.37830   1.38210   1.40145   1.40874
 Alpha virt. eigenvalues --    1.41399   1.42504   1.43592   1.43747   1.44028
 Alpha virt. eigenvalues --    1.45100   1.45690   1.46111   1.46336   1.47222
 Alpha virt. eigenvalues --    1.47368   1.48452   1.48755   1.50049   1.51254
 Alpha virt. eigenvalues --    1.52039   1.53882   1.54952   1.56598   1.57658
 Alpha virt. eigenvalues --    1.58736   1.60156   1.61564   1.62476   1.63423
 Alpha virt. eigenvalues --    1.66119   1.67196   1.67686   1.69309   1.70137
 Alpha virt. eigenvalues --    1.71101   1.72573   1.73319   1.73818   1.75148
 Alpha virt. eigenvalues --    1.75340   1.75972   1.76756   1.77127   1.77237
 Alpha virt. eigenvalues --    1.78470   1.79123   1.79907   1.80060   1.80367
 Alpha virt. eigenvalues --    1.80777   1.81269   1.81791   1.82330   1.82903
 Alpha virt. eigenvalues --    1.83487   1.84439   1.85050   1.86109   1.86253
 Alpha virt. eigenvalues --    1.87169   1.87452   1.88656   1.89357   1.89686
 Alpha virt. eigenvalues --    1.89899   1.90018   1.90615   1.90867   1.91856
 Alpha virt. eigenvalues --    1.92240   1.92522   1.92701   1.93095   1.94759
 Alpha virt. eigenvalues --    1.94852   1.95613   1.96019   1.96337   1.97287
 Alpha virt. eigenvalues --    1.98188   1.98922   1.99194   1.99600   2.00043
 Alpha virt. eigenvalues --    2.00570   2.00771   2.01512   2.01571   2.02774
 Alpha virt. eigenvalues --    2.03226   2.03502   2.03578   2.04029   2.04589
 Alpha virt. eigenvalues --    2.05833   2.06231   2.06648   2.07217   2.07862
 Alpha virt. eigenvalues --    2.08145   2.08804   2.09321   2.10121   2.10740
 Alpha virt. eigenvalues --    2.11120   2.11790   2.12124   2.12528   2.13033
 Alpha virt. eigenvalues --    2.13688   2.14060   2.14359   2.14542   2.15421
 Alpha virt. eigenvalues --    2.16259   2.17139   2.17451   2.18041   2.19105
 Alpha virt. eigenvalues --    2.19871   2.21332   2.21833   2.22513   2.23054
 Alpha virt. eigenvalues --    2.24961   2.25734   2.27748   2.27816   2.28416
 Alpha virt. eigenvalues --    2.29776   2.30209   2.31138   2.31749   2.32296
 Alpha virt. eigenvalues --    2.33024   2.33111   2.33546   2.34156   2.34191
 Alpha virt. eigenvalues --    2.34701   2.35774   2.35988   2.36458   2.36981
 Alpha virt. eigenvalues --    2.37722   2.38303   2.39354   2.39934   2.40228
 Alpha virt. eigenvalues --    2.40882   2.40997   2.41408   2.41718   2.42424
 Alpha virt. eigenvalues --    2.43587   2.43921   2.44318   2.44928   2.45406
 Alpha virt. eigenvalues --    2.45645   2.46661   2.46979   2.47923   2.48157
 Alpha virt. eigenvalues --    2.48524   2.48909   2.49613   2.50168   2.50804
 Alpha virt. eigenvalues --    2.51216   2.51585   2.52426   2.53134   2.53376
 Alpha virt. eigenvalues --    2.54158   2.54917   2.55506   2.55904   2.56392
 Alpha virt. eigenvalues --    2.57083   2.57826   2.58936   2.59726   2.60241
 Alpha virt. eigenvalues --    2.61176   2.61658   2.61941   2.62404   2.63061
 Alpha virt. eigenvalues --    2.63464   2.63865   2.65009   2.65241   2.66378
 Alpha virt. eigenvalues --    2.66988   2.67088   2.67585   2.68048   2.69139
 Alpha virt. eigenvalues --    2.69466   2.70078   2.71745   2.72576   2.73203
 Alpha virt. eigenvalues --    2.73494   2.73797   2.74929   2.75064   2.75725
 Alpha virt. eigenvalues --    2.76288   2.77091   2.77433   2.78257   2.79245
 Alpha virt. eigenvalues --    2.80188   2.80713   2.81169   2.81888   2.82537
 Alpha virt. eigenvalues --    2.83446   2.84211   2.84526   2.84902   2.85851
 Alpha virt. eigenvalues --    2.86451   2.86688   2.87619   2.88087   2.88235
 Alpha virt. eigenvalues --    2.88322   2.89277   2.89904   2.91426   2.91696
 Alpha virt. eigenvalues --    2.92845   2.94254   2.95357   2.96071   2.97166
 Alpha virt. eigenvalues --    2.99880   3.02322   3.03691   3.05366   3.06407
 Alpha virt. eigenvalues --    3.07043   3.07862   3.08374   3.09368   3.09654
 Alpha virt. eigenvalues --    3.10891   3.14157   3.17777   3.19130   3.21140
 Alpha virt. eigenvalues --    3.22158   3.22617   3.23732   3.25122   3.26525
 Alpha virt. eigenvalues --    3.27926   3.28113   3.28406   3.29628   3.32176
 Alpha virt. eigenvalues --    3.32632   3.34680   3.35834   3.36918   3.37945
 Alpha virt. eigenvalues --    3.39999   3.41027   3.42520   3.43050   3.44160
 Alpha virt. eigenvalues --    3.44756   3.45016   3.46284   3.46830   3.47260
 Alpha virt. eigenvalues --    3.47316   3.47741   3.48467   3.49094   3.51115
 Alpha virt. eigenvalues --    3.52049   3.53167   3.53375   3.53943   3.54396
 Alpha virt. eigenvalues --    3.55116   3.55232   3.57324   3.59602   3.91970
 Alpha virt. eigenvalues --    3.92884   3.94390   4.04665   4.13299   4.15538
 Alpha virt. eigenvalues --    4.17442   4.17852   4.18033   4.18848   4.19666
 Alpha virt. eigenvalues --    4.20922   4.22011   4.23577   4.31002   4.36954
 Alpha virt. eigenvalues --    4.37874   4.42657   4.44801   4.46120   4.47277
 Alpha virt. eigenvalues --    4.48415   4.50838   4.52253   4.53379   4.56062
 Alpha virt. eigenvalues --    4.59609   4.64021   4.67206   4.70671   4.73428
 Alpha virt. eigenvalues --    4.75024   4.79297   4.85625   4.88546   4.93252
  Beta  occ. eigenvalues --  -19.30660 -19.28071 -19.28045 -14.59272 -14.55541
  Beta  occ. eigenvalues --  -10.49244 -10.40936 -10.40334 -10.39843 -10.39792
  Beta  occ. eigenvalues --  -10.38745 -10.36709 -10.35020 -10.34786 -10.33660
  Beta  occ. eigenvalues --  -10.33453 -10.33166 -10.32614 -10.32318 -10.32249
  Beta  occ. eigenvalues --  -10.31896 -10.31815 -10.31782 -10.31719 -10.31604
  Beta  occ. eigenvalues --  -10.30872 -10.30714 -10.30356 -10.30304 -10.30054
  Beta  occ. eigenvalues --  -10.30015 -10.29782 -10.29256 -10.29067  -1.23177
  Beta  occ. eigenvalues --   -1.18946  -1.15332  -1.12902  -1.10411  -1.00301
  Beta  occ. eigenvalues --   -0.98345  -0.97371  -0.95990  -0.94980  -0.93794
  Beta  occ. eigenvalues --   -0.91238  -0.89956  -0.88677  -0.88126  -0.86259
  Beta  occ. eigenvalues --   -0.85741  -0.84845  -0.83461  -0.81644  -0.81150
  Beta  occ. eigenvalues --   -0.80370  -0.79531  -0.77226  -0.75447  -0.73752
  Beta  occ. eigenvalues --   -0.72006  -0.71837  -0.70896  -0.69726  -0.67909
  Beta  occ. eigenvalues --   -0.67404  -0.66675  -0.65642  -0.64330  -0.64078
  Beta  occ. eigenvalues --   -0.62786  -0.62572  -0.61603  -0.60538  -0.60476
  Beta  occ. eigenvalues --   -0.59559  -0.59497  -0.58505  -0.58337  -0.57920
  Beta  occ. eigenvalues --   -0.57616  -0.56931  -0.56569  -0.56145  -0.55742
  Beta  occ. eigenvalues --   -0.55622  -0.54788  -0.54150  -0.53998  -0.53617
  Beta  occ. eigenvalues --   -0.53289  -0.52727  -0.52249  -0.52168  -0.51206
  Beta  occ. eigenvalues --   -0.51083  -0.50830  -0.50447  -0.49815  -0.49440
  Beta  occ. eigenvalues --   -0.49080  -0.48957  -0.48474  -0.48014  -0.47657
  Beta  occ. eigenvalues --   -0.47321  -0.46862  -0.46656  -0.46080  -0.45694
  Beta  occ. eigenvalues --   -0.45082  -0.44570  -0.44339  -0.43906  -0.42745
  Beta  occ. eigenvalues --   -0.42426  -0.40068  -0.37978  -0.36435  -0.36168
  Beta  occ. eigenvalues --   -0.35634  -0.34683  -0.34196  -0.33208
  Beta virt. eigenvalues --   -0.23622  -0.02013  -0.01401  -0.00756   0.00427
  Beta virt. eigenvalues --    0.00602   0.01037   0.01502   0.04194   0.04905
  Beta virt. eigenvalues --    0.06175   0.06824   0.07445   0.08305   0.09137
  Beta virt. eigenvalues --    0.09869   0.10050   0.10874   0.11207   0.11696
  Beta virt. eigenvalues --    0.12370   0.12584   0.13301   0.13510   0.13663
  Beta virt. eigenvalues --    0.14148   0.14518   0.15418   0.15681   0.15980
  Beta virt. eigenvalues --    0.16260   0.16445   0.16676   0.16954   0.17354
  Beta virt. eigenvalues --    0.17566   0.17773   0.18522   0.18562   0.18745
  Beta virt. eigenvalues --    0.19047   0.19268   0.19373   0.19649   0.20233
  Beta virt. eigenvalues --    0.20593   0.20794   0.21124   0.21781   0.22004
  Beta virt. eigenvalues --    0.22360   0.22877   0.23082   0.23617   0.24006
  Beta virt. eigenvalues --    0.24321   0.24860   0.25588   0.25890   0.26146
  Beta virt. eigenvalues --    0.26458   0.27719   0.28190   0.28922   0.29612
  Beta virt. eigenvalues --    0.29757   0.31391   0.31938   0.32380   0.33104
  Beta virt. eigenvalues --    0.33392   0.34114   0.34273   0.35314   0.36383
  Beta virt. eigenvalues --    0.37258   0.37570   0.39665   0.42656   0.44014
  Beta virt. eigenvalues --    0.46212   0.46361   0.47282   0.48086   0.48793
  Beta virt. eigenvalues --    0.49299   0.49778   0.51137   0.51853   0.52349
  Beta virt. eigenvalues --    0.53257   0.53500   0.53814   0.54019   0.54356
  Beta virt. eigenvalues --    0.55073   0.55165   0.55352   0.55883   0.56225
  Beta virt. eigenvalues --    0.56493   0.56817   0.57074   0.57613   0.57967
  Beta virt. eigenvalues --    0.58131   0.58412   0.59387   0.59590   0.60504
  Beta virt. eigenvalues --    0.60854   0.61074   0.61546   0.61736   0.62083
  Beta virt. eigenvalues --    0.62222   0.62244   0.62477   0.62634   0.62825
  Beta virt. eigenvalues --    0.63266   0.63591   0.63882   0.64267   0.64312
  Beta virt. eigenvalues --    0.64882   0.65117   0.65908   0.66210   0.67044
  Beta virt. eigenvalues --    0.67307   0.67756   0.68372   0.69121   0.70562
  Beta virt. eigenvalues --    0.71031   0.71287   0.71652   0.72293   0.72806
  Beta virt. eigenvalues --    0.72986   0.73376   0.74231   0.74675   0.75135
  Beta virt. eigenvalues --    0.75563   0.76816   0.77887   0.78303   0.78395
  Beta virt. eigenvalues --    0.79200   0.79501   0.80282   0.80463   0.81207
  Beta virt. eigenvalues --    0.81927   0.82068   0.82394   0.83921   0.83959
  Beta virt. eigenvalues --    0.84176   0.84252   0.84595   0.84966   0.85642
  Beta virt. eigenvalues --    0.85994   0.86453   0.87155   0.87470   0.87804
  Beta virt. eigenvalues --    0.88048   0.88625   0.89057   0.89393   0.89824
  Beta virt. eigenvalues --    0.90585   0.90724   0.91150   0.91349   0.91757
  Beta virt. eigenvalues --    0.92320   0.92661   0.92907   0.93504   0.93907
  Beta virt. eigenvalues --    0.94428   0.94785   0.95089   0.95764   0.96082
  Beta virt. eigenvalues --    0.96473   0.96521   0.97098   0.97349   0.97580
  Beta virt. eigenvalues --    0.98061   0.98795   0.99626   1.00133   1.00679
  Beta virt. eigenvalues --    1.01550   1.02272   1.03276   1.03713   1.04600
  Beta virt. eigenvalues --    1.04867   1.06324   1.06657   1.06941   1.08645
  Beta virt. eigenvalues --    1.09688   1.10229   1.11109   1.11641   1.12341
  Beta virt. eigenvalues --    1.13701   1.14044   1.15371   1.15523   1.17127
  Beta virt. eigenvalues --    1.17466   1.18229   1.18945   1.19131   1.19663
  Beta virt. eigenvalues --    1.20130   1.20721   1.21663   1.22841   1.24277
  Beta virt. eigenvalues --    1.24597   1.25639   1.27578   1.27852   1.29166
  Beta virt. eigenvalues --    1.29375   1.29747   1.31011   1.31718   1.32305
  Beta virt. eigenvalues --    1.32765   1.33336   1.34118   1.34992   1.35412
  Beta virt. eigenvalues --    1.36691   1.37463   1.38033   1.38448   1.40379
  Beta virt. eigenvalues --    1.41165   1.41636   1.42636   1.43633   1.43792
  Beta virt. eigenvalues --    1.44059   1.45188   1.45726   1.46173   1.46442
  Beta virt. eigenvalues --    1.47297   1.47426   1.48564   1.48792   1.50205
  Beta virt. eigenvalues --    1.51509   1.52304   1.54266   1.55152   1.56825
  Beta virt. eigenvalues --    1.57827   1.58869   1.60410   1.61757   1.62665
  Beta virt. eigenvalues --    1.63625   1.66415   1.67342   1.67896   1.69529
  Beta virt. eigenvalues --    1.70236   1.71328   1.72746   1.73465   1.74016
  Beta virt. eigenvalues --    1.75305   1.75455   1.76075   1.76902   1.77380
  Beta virt. eigenvalues --    1.77592   1.78562   1.79217   1.80030   1.80149
  Beta virt. eigenvalues --    1.80478   1.80900   1.81339   1.81971   1.82470
  Beta virt. eigenvalues --    1.82999   1.83638   1.84564   1.85179   1.86297
  Beta virt. eigenvalues --    1.86421   1.87258   1.87557   1.88870   1.89419
  Beta virt. eigenvalues --    1.89786   1.90015   1.90186   1.90704   1.91011
  Beta virt. eigenvalues --    1.91951   1.92436   1.92693   1.92962   1.93225
  Beta virt. eigenvalues --    1.94792   1.95032   1.95917   1.96068   1.96428
  Beta virt. eigenvalues --    1.97471   1.98348   1.99041   1.99248   1.99721
  Beta virt. eigenvalues --    2.00124   2.00688   2.00879   2.01609   2.01646
  Beta virt. eigenvalues --    2.02906   2.03333   2.03626   2.03795   2.04270
  Beta virt. eigenvalues --    2.04690   2.05899   2.06359   2.06767   2.07385
  Beta virt. eigenvalues --    2.07884   2.08431   2.08830   2.09510   2.10161
  Beta virt. eigenvalues --    2.10838   2.11197   2.11808   2.12191   2.12601
  Beta virt. eigenvalues --    2.13206   2.13749   2.14129   2.14416   2.14602
  Beta virt. eigenvalues --    2.15536   2.16396   2.17374   2.17574   2.18147
  Beta virt. eigenvalues --    2.19198   2.20028   2.21401   2.21959   2.22641
  Beta virt. eigenvalues --    2.23200   2.25103   2.25877   2.27832   2.27969
  Beta virt. eigenvalues --    2.28488   2.29927   2.30293   2.31278   2.31793
  Beta virt. eigenvalues --    2.32358   2.33117   2.33178   2.33665   2.34206
  Beta virt. eigenvalues --    2.34257   2.34886   2.35880   2.36077   2.36530
  Beta virt. eigenvalues --    2.37067   2.37832   2.38402   2.39424   2.40033
  Beta virt. eigenvalues --    2.40246   2.40913   2.41140   2.41440   2.41760
  Beta virt. eigenvalues --    2.42478   2.43701   2.43991   2.44383   2.45020
  Beta virt. eigenvalues --    2.45459   2.45747   2.46775   2.47083   2.48151
  Beta virt. eigenvalues --    2.48424   2.48556   2.49039   2.49782   2.50351
  Beta virt. eigenvalues --    2.50946   2.51329   2.51714   2.52501   2.53181
  Beta virt. eigenvalues --    2.53472   2.54238   2.55029   2.55595   2.56034
  Beta virt. eigenvalues --    2.56455   2.57158   2.57936   2.59112   2.59828
  Beta virt. eigenvalues --    2.60325   2.61320   2.61723   2.62021   2.62500
  Beta virt. eigenvalues --    2.63206   2.63485   2.64058   2.65083   2.65333
  Beta virt. eigenvalues --    2.66499   2.67041   2.67198   2.67658   2.68158
  Beta virt. eigenvalues --    2.69212   2.69530   2.70184   2.71929   2.72650
  Beta virt. eigenvalues --    2.73309   2.73584   2.73851   2.75007   2.75220
[...]
     7 C(13)  Bbb    -0.0008    -0.108    -0.039    -0.036 -0.4534  0.5511  0.7006
              Bcc     0.0087     1.170     0.418     0.390  0.3174 -0.6347  0.7046
 
              Baa    -0.0351    -4.708    -1.680    -1.570  0.3133  0.3313  0.8900
     8 C(13)  Bbb    -0.0298    -3.998    -1.427    -1.334  0.6648  0.5927 -0.4547
              Bcc     0.0649     8.706     3.106     2.904 -0.6781  0.7341 -0.0345
 
              Baa    -0.0249    -3.342    -1.192    -1.115  0.8263  0.1885  0.5307
     9 C(13)  Bbb    -0.0047    -0.633    -0.226    -0.211  0.2299  0.7473 -0.6234
              Bcc     0.0296     3.974     1.418     1.326 -0.5141  0.6372  0.5742
 
              Baa    -0.6378   -24.597    -8.777    -8.205  0.6283  0.7532 -0.1946
    10 N(14)  Bbb    -0.6299   -24.293    -8.668    -8.103  0.5569 -0.2608  0.7886
              Bcc     1.2677    48.891    17.445    16.308 -0.5432  0.6038  0.5834
 
              Baa    -0.0807   -10.829    -3.864    -3.612 -0.5413  0.4352  0.7195
    11 C(13)  Bbb     0.0223     2.988     1.066     0.997 -0.1620  0.7856 -0.5971
              Bcc     0.0584     7.840     2.798     2.615  0.8251  0.4398  0.3547
 
              Baa    -0.2005    14.510     5.178     4.840  0.6119 -0.5519 -0.5665
    12 O(17)  Bbb     0.0428    -3.095    -1.104    -1.032  0.7881  0.4863  0.3775
              Bcc     0.1578   -11.415    -4.073    -3.808  0.0672 -0.6775  0.7325
 
              Baa    -0.0241    -3.238    -1.155    -1.080  0.6112  0.7102 -0.3495
    13 C(13)  Bbb    -0.0013    -0.181    -0.064    -0.060  0.5969 -0.1236  0.7928
              Bcc     0.0255     3.419     1.220     1.140 -0.5198  0.6931  0.4994
 
              Baa    -0.0623    -8.363    -2.984    -2.790 -0.2031  0.0024  0.9792
    14 C(13)  Bbb    -0.0378    -5.074    -1.810    -1.692  0.5899  0.7984  0.1204
              Bcc     0.1001    13.437     4.795     4.482  0.7815 -0.6021  0.1636
 
              Baa    -0.0323    -4.336    -1.547    -1.446 -0.0660  0.9314  0.3580
    15 C(13)  Bbb    -0.0237    -3.176    -1.133    -1.059  0.9941  0.0303  0.1043
              Bcc     0.0560     7.512     2.681     2.506 -0.0863 -0.3628  0.9279
 
              Baa    -0.0031    -0.418    -0.149    -0.139 -0.3123  0.9112 -0.2685
    16 C(13)  Bbb    -0.0001    -0.014    -0.005    -0.005  0.8504  0.1422 -0.5065
              Bcc     0.0032     0.432     0.154     0.144  0.4234  0.3866  0.8193
 
              Baa    -0.0048    -0.639    -0.228    -0.213  0.3853  0.9029  0.1904
    17 C(13)  Bbb    -0.0027    -0.364    -0.130    -0.121  0.5499 -0.3904  0.7384
              Bcc     0.0075     1.003     0.358     0.335  0.7411 -0.1798 -0.6469
 
              Baa    -0.0285    -3.830    -1.367    -1.278  0.7303 -0.6641  0.1598
    18 C(13)  Bbb    -0.0235    -3.159    -1.127    -1.054  0.6830  0.7052 -0.1902
              Bcc     0.0521     6.989     2.494     2.331  0.0136  0.2481  0.9686
 
              Baa    -0.0080    -1.067    -0.381    -0.356 -0.0791  0.9925  0.0933
    19 C(13)  Bbb    -0.0028    -0.370    -0.132    -0.123  0.9394  0.0430  0.3401
              Bcc     0.0107     1.437     0.513     0.479 -0.3335 -0.1145  0.9358
 
              Baa    -0.0062    -0.834    -0.298    -0.278  0.9148  0.2942  0.2767
    20 C(13)  Bbb    -0.0032    -0.426    -0.152    -0.142 -0.1332 -0.4270  0.8944
              Bcc     0.0094     1.259     0.449     0.420 -0.3812  0.8551  0.3515
 
              Baa    -0.0060    -0.807    -0.288    -0.269 -0.2960  0.6793  0.6715
    21 C(13)  Bbb     0.0019     0.259     0.093     0.086  0.9065 -0.0219  0.4217
              Bcc     0.0041     0.547     0.195     0.183  0.3012  0.7335 -0.6093
 
              Baa    -0.0074    -0.998    -0.356    -0.333  0.8656 -0.1031  0.4900
    22 C(13)  Bbb    -0.0056    -0.754    -0.269    -0.251  0.4185  0.6863 -0.5949
              Bcc     0.0131     1.752     0.625     0.584 -0.2750  0.7200  0.6372
 
              Baa    -0.0055    -0.733    -0.261    -0.244 -0.2339  0.7578  0.6092
    23 C(13)  Bbb     0.0018     0.247     0.088     0.082  0.8462 -0.1499  0.5113
              Bcc     0.0036     0.485     0.173     0.162  0.4788  0.6351 -0.6062
 
              Baa    -0.0055    -0.732    -0.261    -0.244  0.7680 -0.2351  0.5957
    24 C(13)  Bbb    -0.0029    -0.394    -0.141    -0.132  0.5061  0.7928 -0.3396
              Bcc     0.0084     1.127     0.402     0.376 -0.3925  0.5623  0.7279
 
              Baa    -0.0449     3.248     1.159     1.084  0.1759  0.1260  0.9763
    25 O(17)  Bbb    -0.0393     2.842     1.014     0.948  0.8324  0.5104 -0.2159
              Bcc     0.0842    -6.090    -2.173    -2.031 -0.5255  0.8507 -0.0151
 
              Baa    -0.0257     1.859     0.663     0.620  0.9033  0.4255  0.0542
    26 O(17)  Bbb    -0.0242     1.750     0.624     0.584 -0.4244  0.8683  0.2570
              Bcc     0.0499    -3.609    -1.288    -1.204  0.0623 -0.2552  0.9649
 
              Baa    -0.0155    -2.086    -0.745    -0.696  0.8145  0.5630 -0.1399
    27 C(13)  Bbb    -0.0139    -1.865    -0.665    -0.622 -0.4659  0.7785  0.4205
              Bcc     0.0294     3.951     1.410     1.318  0.3457 -0.2774  0.8964
 
              Baa    -0.0045    -0.605    -0.216    -0.202 -0.2849  0.6953  0.6598
    28 C(13)  Bbb    -0.0015    -0.207    -0.074    -0.069  0.7158  0.6122 -0.3361
              Bcc     0.0061     0.812     0.290     0.271  0.6376 -0.3765  0.6721
 
              Baa    -0.0029    -0.382    -0.136    -0.128  0.5919  0.6135 -0.5228
    29 C(13)  Bbb    -0.0005    -0.070    -0.025    -0.023  0.7537 -0.6512  0.0892
              Bcc     0.0034     0.453     0.162     0.151  0.2857  0.4468  0.8478
 
              Baa    -0.0018    -0.242    -0.087    -0.081  0.2728  0.1749  0.9460
    30 C(13)  Bbb     0.0002     0.024     0.009     0.008  0.7277  0.6057 -0.3218
              Bcc     0.0016     0.218     0.078     0.073 -0.6293  0.7762  0.0380
 
              Baa    -0.0053    -0.708    -0.253    -0.236  0.7221  0.5625 -0.4026
    31 C(13)  Bbb    -0.0040    -0.537    -0.192    -0.179 -0.6311  0.7740 -0.0505
              Bcc     0.0093     1.246     0.444     0.415  0.2832  0.2906  0.9140
 
              Baa    -0.0048    -0.645    -0.230    -0.215  0.2333  0.3675  0.9003
    32 C(13)  Bbb     0.0016     0.217     0.077     0.072  0.7341  0.5406 -0.4109
              Bcc     0.0032     0.428     0.153     0.143 -0.6377  0.7568 -0.1436
 
              Baa    -0.0052    -0.701    -0.250    -0.234  0.8598  0.3514 -0.3706
    33 C(13)  Bbb    -0.0033    -0.439    -0.156    -0.146 -0.4710  0.8261 -0.3093
              Bcc     0.0085     1.139     0.407     0.380  0.1975  0.4405  0.8758
 
              Baa    -0.0016    -0.208    -0.074    -0.069  0.3264  0.2032  0.9231
    34 C(13)  Bbb    -0.0006    -0.079    -0.028    -0.026  0.9438 -0.1240 -0.3064
              Bcc     0.0021     0.287     0.103     0.096  0.0522  0.9712 -0.2323
 
              Baa    -0.0009    -0.460    -0.164    -0.153 -0.4692  0.8687  0.1585
    35 H(1)   Bbb    -0.0002    -0.114    -0.041    -0.038  0.5800  0.1678  0.7971
              Bcc     0.0011     0.574     0.205     0.191  0.6659  0.4660 -0.5826
 
              Baa    -0.0007    -0.387    -0.138    -0.129 -0.6826  0.7131 -0.1596
    36 H(1)   Bbb    -0.0006    -0.324    -0.116    -0.108  0.0601  0.2724  0.9603
              Bcc     0.0013     0.711     0.254     0.237  0.7283  0.6459 -0.2288
 
              Baa    -0.0009    -0.485    -0.173    -0.162  0.2489  0.3299  0.9106
    37 H(1)   Bbb    -0.0006    -0.318    -0.114    -0.106 -0.3132  0.9171 -0.2466
              Bcc     0.0015     0.803     0.287     0.268  0.9165  0.2238 -0.3316
 
              Baa    -0.0042    -2.265    -0.808    -0.756 -0.0590  0.1145  0.9917
    38 H(1)   Bbb     0.0004     0.216     0.077     0.072  0.0015  0.9934 -0.1146
              Bcc     0.0038     2.049     0.731     0.684  0.9983  0.0052  0.0587
 
              Baa    -0.0046    -2.474    -0.883    -0.825  0.7973 -0.2141 -0.5643
    39 H(1)   Bbb    -0.0033    -1.742    -0.622    -0.581 -0.0826  0.8875 -0.4534
              Bcc     0.0079     4.217     1.505     1.407  0.5979  0.4081  0.6899
 
              Baa    -0.0043    -2.271    -0.810    -0.757 -0.2429 -0.1709  0.9549
    40 H(1)   Bbb    -0.0031    -1.651    -0.589    -0.551  0.9610 -0.1762  0.2130
              Bcc     0.0074     3.922     1.399     1.308  0.1319  0.9694  0.2070
 
              Baa    -0.0060    -3.187    -1.137    -1.063  0.2073 -0.0034  0.9783
    41 H(1)   Bbb    -0.0016    -0.849    -0.303    -0.283  0.2378  0.9702 -0.0470
              Bcc     0.0076     4.036     1.440     1.346  0.9489 -0.2424 -0.2020
 
              Baa    -0.0058    -3.110    -1.110    -1.037  0.5774  0.7981 -0.1724
    42 H(1)   Bbb    -0.0019    -1.017    -0.363    -0.339  0.4346 -0.1216  0.8924
              Bcc     0.0077     4.127     1.473     1.377  0.6912 -0.5902 -0.4170
 
              Baa    -0.0042    -2.253    -0.804    -0.752  0.8246  0.4641  0.3236
    43 H(1)   Bbb    -0.0026    -1.408    -0.502    -0.470 -0.5594  0.5833  0.5890
              Bcc     0.0069     3.661     1.306     1.221  0.0846 -0.6667  0.7406
 
              Baa    -0.0063    -3.335    -1.190    -1.112  0.0759  0.2225  0.9720
    44 H(1)   Bbb    -0.0050    -2.646    -0.944    -0.883  0.7443 -0.6613  0.0933
              Bcc     0.0112     5.982     2.134     1.995  0.6636  0.7163 -0.2158
 
              Baa    -0.0078    -4.138    -1.477    -1.380  0.7237  0.0524 -0.6881
    45 H(1)   Bbb    -0.0052    -2.774    -0.990    -0.925 -0.3210  0.9082 -0.2684
              Bcc     0.0130     6.912     2.467     2.306  0.6109  0.4152  0.6741
 
              Baa    -0.0065    -3.467    -1.237    -1.157  0.2265  0.8778  0.4221
    46 H(1)   Bbb    -0.0055    -2.916    -1.041    -0.973  0.9460 -0.0951 -0.3099
              Bcc     0.0120     6.384     2.278     2.129  0.2319 -0.4695  0.8519
 
              Baa    -0.0084    -4.488    -1.602    -1.497 -0.3193 -0.2037  0.9255
    47 H(1)   Bbb     0.0002     0.086     0.031     0.029  0.7953  0.4735  0.3785
              Bcc     0.0083     4.402     1.571     1.468 -0.5153  0.8569  0.0108
 
              Baa    -0.0026    -1.382    -0.493    -0.461 -0.1767 -0.3682  0.9128
    48 H(1)   Bbb    -0.0010    -0.511    -0.182    -0.170 -0.5238  0.8203  0.2295
              Bcc     0.0035     1.893     0.675     0.631  0.8333  0.4376  0.3378
 
              Baa    -0.0017    -0.884    -0.315    -0.295 -0.1367  0.3745  0.9171
    49 H(1)   Bbb    -0.0010    -0.509    -0.182    -0.170 -0.5264  0.7568 -0.3875
              Bcc     0.0026     1.393     0.497     0.465  0.8392  0.5357 -0.0936
 
              Baa    -0.0016    -0.873    -0.312    -0.291 -0.3867 -0.2471  0.8885
    50 H(1)   Bbb    -0.0009    -0.477    -0.170    -0.159 -0.2603  0.9535  0.1519
              Bcc     0.0025     1.350     0.482     0.450  0.8847  0.1726  0.4330
 
              Baa    -0.0015    -0.786    -0.281    -0.262  0.3151  0.9245  0.2146
    51 H(1)   Bbb    -0.0014    -0.743    -0.265    -0.248 -0.1755 -0.1654  0.9705
              Bcc     0.0029     1.530     0.546     0.510  0.9327 -0.3435  0.1102
 
              Baa    -0.0017    -0.889    -0.317    -0.297 -0.0779 -0.4730  0.8776
    52 H(1)   Bbb    -0.0010    -0.511    -0.182    -0.171  0.7573  0.5444  0.3606
              Bcc     0.0026     1.401     0.500     0.467 -0.6484  0.6927  0.3159
 
              Baa    -0.0016    -0.833    -0.297    -0.278  0.4123  0.6179  0.6694
    53 H(1)   Bbb    -0.0004    -0.204    -0.073    -0.068 -0.2344  0.7820 -0.5775
              Bcc     0.0019     1.037     0.370     0.346  0.8804 -0.0812 -0.4673
 
              Baa    -0.0057    -3.047    -1.087    -1.016  0.6304  0.7573  0.1703
    54 H(1)   Bbb    -0.0021    -1.132    -0.404    -0.378 -0.5977  0.6136 -0.5160
              Bcc     0.0078     4.179     1.491     1.394 -0.4953  0.2235  0.8395
 
              Baa    -0.0074    -3.956    -1.412    -1.320 -0.2780  0.9556  0.0975
    55 H(1)   Bbb     0.0019     1.029     0.367     0.343  0.8704  0.2077  0.4464
              Bcc     0.0055     2.927     1.044     0.976 -0.4064 -0.2089  0.8895
 
              Baa    -0.0014    -0.746    -0.266    -0.249 -0.1226  0.9055  0.4063
    56 H(1)   Bbb    -0.0001    -0.078    -0.028    -0.026  0.9892  0.1444 -0.0233
              Bcc     0.0015     0.823     0.294     0.275  0.0798 -0.3991  0.9134
 
              Baa    -0.0006    -0.331    -0.118    -0.111 -0.4200  0.8032  0.4225
    57 H(1)   Bbb    -0.0002    -0.096    -0.034    -0.032  0.8420  0.1711  0.5117
              Bcc     0.0008     0.428     0.153     0.143 -0.3387 -0.5707  0.7481
 
              Baa    -0.0012    -0.638    -0.228    -0.213  0.8509 -0.1044  0.5148
    58 H(1)   Bbb    -0.0003    -0.185    -0.066    -0.062 -0.2637  0.7627  0.5906
              Bcc     0.0015     0.823     0.294     0.275  0.4543  0.6383 -0.6215
 
              Baa    -0.0007    -0.354    -0.126    -0.118 -0.0488  0.7804  0.6234
    59 H(1)   Bbb    -0.0003    -0.149    -0.053    -0.050  0.8403 -0.3054  0.4480
              Bcc     0.0009     0.503     0.180     0.168 -0.5400 -0.5457  0.6408
 
              Baa    -0.0020    -1.047    -0.373    -0.349  0.0608  0.7930  0.6061
    60 H(1)   Bbb    -0.0003    -0.145    -0.052    -0.048  0.6404 -0.4968  0.5858
              Bcc     0.0022     1.192     0.425     0.398  0.7657  0.3525 -0.5381
 
              Baa    -0.0041    -2.214    -0.790    -0.738  0.4274 -0.0093  0.9040
    61 H(1)   Bbb    -0.0017    -0.893    -0.319    -0.298  0.7384 -0.5734 -0.3550
              Bcc     0.0058     3.107     1.109     1.036  0.5217  0.8192 -0.2382
 
              Baa    -0.0026    -1.392    -0.497    -0.464 -0.0308 -0.2833  0.9585
    62 H(1)   Bbb    -0.0002    -0.081    -0.029    -0.027  0.9962 -0.0867  0.0064
              Bcc     0.0028     1.473     0.526     0.491  0.0813  0.9551  0.2849
 
              Baa    -0.0035    -1.889    -0.674    -0.630  0.7512 -0.1060 -0.6515
    63 H(1)   Bbb    -0.0012    -0.650    -0.232    -0.217  0.1604  0.9867  0.0245
              Bcc     0.0048     2.539     0.906     0.847  0.6403 -0.1229  0.7582
 
              Baa    -0.0035    -1.890    -0.674    -0.630 -0.0887  0.8089  0.5812
    64 H(1)   Bbb    -0.0009    -0.470    -0.168    -0.157  0.9813  0.1711 -0.0884
              Bcc     0.0044     2.359     0.842     0.787  0.1710 -0.5625  0.8089
 
              Baa    -0.0012    -0.665    -0.237    -0.222 -0.0398  0.6453  0.7629
    65 H(1)   Bbb    -0.0006    -0.330    -0.118    -0.110  0.3998  0.7100 -0.5797
              Bcc     0.0019     0.995     0.355     0.332  0.9157 -0.2820  0.2863
 
              Baa    -0.0005    -0.249    -0.089    -0.083  0.0147  0.3802  0.9248
    66 H(1)   Bbb    -0.0002    -0.084    -0.030    -0.028  0.4656  0.8159 -0.3428
              Bcc     0.0006     0.334     0.119     0.111  0.8849 -0.4356  0.1650
 
              Baa    -0.0009    -0.473    -0.169    -0.158  0.7148  0.5566 -0.4234
    67 H(1)   Bbb    -0.0003    -0.139    -0.050    -0.046  0.2089  0.4079  0.8888
              Bcc     0.0011     0.612     0.218     0.204 -0.6674  0.7238 -0.1753
 
              Baa    -0.0005    -0.251    -0.089    -0.084  0.3002  0.6184  0.7263
    68 H(1)   Bbb    -0.0003    -0.134    -0.048    -0.045  0.7146  0.3586 -0.6007
              Bcc     0.0007     0.385     0.137     0.128 -0.6319  0.6993 -0.3343
 
              Baa    -0.0011    -0.572    -0.204    -0.191 -0.1442  0.6527  0.7438
    69 H(1)   Bbb     0.0000    -0.016    -0.006    -0.005  0.9098  0.3831 -0.1598
              Bcc     0.0011     0.587     0.210     0.196 -0.3892  0.6536 -0.6491
 
              Baa    -0.0014    -0.769    -0.274    -0.256 -0.0175  0.2202  0.9753
    70 H(1)   Bbb    -0.0009    -0.470    -0.168    -0.157  0.9863 -0.1561  0.0529
              Bcc     0.0023     1.238     0.442     0.413  0.1639  0.9629 -0.2144
 
              Baa    -0.0008    -0.403    -0.144    -0.135 -0.1260  0.2896  0.9488
    71 H(1)   Bbb    -0.0005    -0.282    -0.101    -0.094  0.9094 -0.3485  0.2271
              Bcc     0.0013     0.686     0.245     0.229  0.3964  0.8914 -0.2195
 
              Baa    -0.0011    -0.560    -0.200    -0.187 -0.4108  0.5845  0.6997
    72 H(1)   Bbb    -0.0005    -0.293    -0.105    -0.098  0.8705  0.0231  0.4917
              Bcc     0.0016     0.854     0.305     0.285  0.2713  0.8111 -0.5183
 

 ---------------------------------------------------------------------------------

 No NMR shielding tensors so no spin-rotation constants.
 Leave Link  601 at Mon Mar  4 23:41:11 2024, MaxMem=  5368709120 cpu:         8.3
 (Enter /home/k0335/k033513/app/g09/l9999.exe)
 1\1\GINC-C18U05N4\SP\UCAM-B3LYP\6-31G(d,p)\C29H38N2O3(1+,2)\K033513\04
 -Mar-2024\0\\#p CAM-B3LYP/6-31G(d,p) SCRF=(PCM,Solvent=Generic,Read) N
 oSymm out=wfn\\Title A4693530_p1\\1,2\C,0,4.601611,3.678348,-2.223496\
 C,0,3.291946,3.623484,-1.48083\C,0,3.038379,2.625087,-0.610544\C,0,1.8
 07217,2.392529,0.221053\N,0,1.026498,1.235759,-0.254464\C,0,1.710736,-
 0.10706,-0.257155\C,0,0.981893,-1.19627,-1.075494\C,0,-0.353325,-1.627
 003,-0.465458\C,0,-1.352722,-0.460625,-0.32732\N,0,-1.051018,0.642998,
 -1.263476\C,0,-0.031668,1.567911,-1.099769\O,0,-0.108728,2.673608,-1.6
 37955\C,0,-2.05158,0.91799,-2.294988\C,0,-3.225041,1.624281,-1.677404\
 C,0,-4.504917,1.210603,-1.584893\C,0,-5.035205,-0.100409,-2.094385\C,0
 ,-5.543955,2.088509,-0.936342\C,0,-1.573534,0.045708,1.119396\C,0,-2.2
 60309,-0.969875,2.006881\C,0,-1.567757,-1.599384,3.049525\C,0,-2.20412
 5,-2.54934,3.850197\C,0,-3.539825,-2.874303,3.62257\C,0,-4.243243,-2.2
 4455,2.598481\C,0,-3.608477,-1.295096,1.796885\O,0,-0.893401,-2.628351
 ,-1.365933\O,0,1.799107,-2.363335,-1.249571\C,0,2.097601,-0.55804,1.18
 3898\C,0,3.114213,-1.668836,1.308254\C,0,4.435207,-1.479575,0.879244\C
 ,0,5.378119,-2.499788,1.017022\C,0,5.012827,-3.716587,1.58891\C,0,3.70
 4312,-3.914609,2.024249\C,0,2.759889,-2.895729,1.887771\C,0,2.34732,4.
 744127,-1.819415\H,0,4.426679,3.638004,-3.303496\H,0,5.131293,4.607878
 ,-1.990213\H,0,5.263334,2.84557,-1.963384\H,0,3.828325,1.894841,-0.445
 563\H,0,2.103539,2.216124,1.2585\H,0,1.165924,3.27763,0.267554\H,0,2.6
 4794,0.048148,-0.804741\H,0,0.825188,-0.834906,-2.099976\H,0,-0.19853,
 -2.159357,0.476988\H,0,-2.322063,-0.8608,-0.653157\H,0,-2.309878,-0.02
 8043,-2.777628\H,0,-1.626607,1.555406,-3.078794\H,0,-2.967965,2.608472
 ,-1.282273\H,0,-4.262124,-0.755941,-2.499072\H,0,-5.530561,-0.647238,-
 1.28447\H,0,-5.768592,0.075652,-2.888402\H,0,-6.348465,2.310876,-1.645
 155\H,0,-5.129279,3.043191,-0.595249\H,0,-5.975608,1.583484,-0.065816\
 H,0,-2.203866,0.945099,1.102604\H,0,-0.638106,0.370549,1.581904\H,0,-0
 .529262,-1.353391,3.256034\H,0,-1.658835,-3.032268,4.657495\H,0,-4.035
 037,-3.61071,4.250324\H,0,-5.289202,-2.48755,2.42896\H,0,-4.177594,-0.
 801307,1.011892\H,0,-1.679802,-3.005141,-0.929516\H,0,1.206585,-3.0255
 01,-1.658773\H,0,2.521976,0.279141,1.747859\H,0,1.19776,-0.828291,1.74
 1586\H,0,4.741037,-0.537361,0.431881\H,0,6.397677,-2.34562,0.673786\H,
 0,5.74674,-4.511227,1.691391\H,0,3.417603,-4.864877,2.466836\H,0,1.743
 529,-3.072538,2.230069\H,0,1.462176,4.778207,-1.181755\H,0,2.854224,5.
 70889,-1.705774\H,0,2.011803,4.652727,-2.857901\\Version=ES64L-G09RevD
 .01\HF=-1462.1196602\S2=0.771307\S2-1=0.\S2A=0.750155\RMSD=5.301e-09\D
 ipole=-2.2592801,0.1847229,-0.3998145\Quadrupole=20.7165483,-6.6948951
 ,-14.0216532,8.583279,3.1197995,-10.022951\PG=C01 [X(C29H38N2O3)]\\@

 Writing a WFN file to "A4693530/A4693530_p1.wfn"


 IT IS DOUBTED WHETHER A MAN EVER BRINGS HIS FACULTIES TO BEAR WITH THEIR FULL FORCE
 ON A SUBJECT UNTIL HE WRITES UPON IT.

                          -- CICERO
 Job cpu time:       0 days  1 hours 26 minutes 37.0 seconds.
 File lengths (MBytes):  RWF=    799 Int=      0 D2E=      0 Chk=     25 Scr=      1
 Normal termination of Gaussian 09 at Mon Mar  4 23:41:11 2024.
