 Entering Gaussian System, Link 0=g09
 Initial command:
 /home/k0335/k033513/app/g09/l1.exe "/home/k0335/k033513/app/g09/scratch/Gau-2826791.inp" -scrdir="/home/k0335/k033513/app/g09/scratch/"
 Default is to use a total of  36 processors:
                               36 via shared-memory
                                1 via Linda
 Entering Link 1 = /home/k0335/k033513/app/g09/l1.exe PID=   2826792.
  
 Copyright (c) 1988,1990,1992,1993,1995,1998,2003,2009,2013,
            Gaussian, Inc.  All Rights Reserved.
  
 This is part of the Gaussian(R) 09 program.  It is based on
 the Gaussian(R) 03 system (copyright 2003, Gaussian, Inc.),
 the Gaussian(R) 98 system (copyright 1998, Gaussian, Inc.),
 the Gaussian(R) 94 system (copyright 1995, Gaussian, Inc.),
 the Gaussian 92(TM) system (copyright 1992, Gaussian, Inc.),
 the Gaussian 90(TM) system (copyright 1990, Gaussian, Inc.),
 the Gaussian 88(TM) system (copyright 1988, Gaussian, Inc.),
 the Gaussian 86(TM) system (copyright 1986, Carnegie Mellon
 University), and the Gaussian 82(TM) system (copyright 1983,
 Carnegie Mellon University). Gaussian is a federally registered
 trademark of Gaussian, Inc.
  
 This software contains proprietary and confidential information,
 including trade secrets, belonging to Gaussian, Inc.
  
 This software is provided under written license and may be
 used, copied, transmitted, or stored only in accord with that
 written license.
  
 The following legend is applicable only to US Government
 contracts under FAR:
  
                    RESTRICTED RIGHTS LEGEND
  
 Use, reproduction and disclosure by the US Government is
 subject to restrictions as set forth in subparagraphs (a)
 and (c) of the Commercial Computer Software - Restricted
 Rights clause in FAR 52.227-19.
  
 Gaussian, Inc.
 340 Quinnipiac St., Bldg. 40, Wallingford CT 06492
  
  
 ---------------------------------------------------------------
 Warning -- This program may not be used in any manner that
 competes with the business of Gaussian, Inc. or will provide
 assistance to any competitor of Gaussian, Inc.  The licensee
 of this program is prohibited from giving any competitor of
 Gaussian, Inc. access to this program.  By using this program,
 the user acknowledges that Gaussian, Inc. is engaged in the
 business of creating and licensing software in the field of
 computational chemistry and represents and warrants to the
 licensee that it is not a competitor of Gaussian, Inc. and that
 it will not use this program in any manner prohibited above.
 ---------------------------------------------------------------
  

 Cite this work as:
 Gaussian 09, Revision D.01,
 M. J. Frisch, G. W. Trucks, H. B. Schlegel, G. E. Scuseria, 
 M. A. Robb, J. R. Cheeseman, G. Scalmani, V. Barone, B. Mennucci, 
 G. A. Petersson, H. Nakatsuji, M. Caricato, X. Li, H. P. Hratchian, 
 A. F. Izmaylov, J. Bloino, G. Zheng, J. L. Sonnenberg, M. Hada, 
 M. Ehara, K. Toyota, R. Fukuda, J. Hasegawa, M. Ishida, T. Nakajima, 
 Y. Honda, O. Kitao, H. Nakai, T. Vreven, J. A. Montgomery, Jr., 
 J. E. Peralta, F. Ogliaro, M. Bearpark, J. J. Heyd, E. Brothers, 
 K. N. Kudin, V. N. Staroverov, T. Keith, R. Kobayashi, J. Normand, 
 K. Raghavachari, A. Rendell, J. C. Burant, S. S. Iyengar, J. Tomasi, 
 M. Cossi, N. Rega, J. M. Millam, M. Klene, J. E. Knox, J. B. Cross, 
 V. Bakken, C. Adamo, J. Jaramillo, R. Gomperts, R. E. Stratmann, 
 O. Yazyev, A. J. Austin, R. Cammi, C. Pomelli, J. W. Ochterski, 
 R. L. Martin, K. Morokuma, V. G. Zakrzewski, G. A. Voth, 
 P. Salvador, J. J. Dannenberg, S. Dapprich, A. D. Daniels, 
 O. Farkas, J. B. Foresman, J. V. Ortiz, J. Cioslowski, 
 and D. J. Fox, Gaussian, Inc., Wallingford CT, 2013.
 
 ******************************************
 Gaussian 09:  ES64L-G09RevD.01 24-Apr-2013
                 1-Feb-2025 
 ******************************************
 %nprocshared=24
 Will use up to   24 processors via shared memory.
 %mem=40GB
 %rwf=wang5/FFKM1/FFKM1_neu.rwf
 %nosave
 %chk=wang5/FFKM1/FFKM1_neu.chk
 ----------------------------------------------------------------------
 #p CAM-B3LYP/6-31G(d,p) SCRF=(PCM,Solvent=Generic,Read) NoSymm out=wfn
 ----------------------------------------------------------------------
 1/38=1,40=2/1;
 2/12=2,15=1,17=6,18=5,40=1/2;
 3/5=1,6=6,7=101,11=2,16=1,25=1,30=1,70=2203,72=-2,74=-40/1,2,3;
 4//1;
 5/5=2,38=5/2;
 6/7=2,8=2,9=2,10=2,28=1/1;
 99/5=1,6=100,9=1/99;
 Leave Link    1 at Sat Feb  1 13:58:23 2025, MaxMem=  5368709120 cpu:         1.4
 (Enter /home/k0335/k033513/app/g09/l101.exe)
 ---------------
 Title FFKM1_neu
 ---------------
 Symbolic Z-matrix:
 Charge =  0 Multiplicity = 1
 F                    -3.02078   0.95804   1.13097 
 C                    -2.31116   1.22044   0.01866 
 F                    -2.87907   0.6224   -1.04229 
 F                    -2.32772   2.55339  -0.18615 
 O                    -0.97776   0.8246    0.19488 
 C                    -0.86588  -0.56734   0.0411 
 F                    -0.99806  -0.86925  -1.27049 
 F                    -1.89681  -1.15353   0.69952 
 C                     0.45591  -1.11086   0.58174 
 F                     0.64661  -0.65961   1.85755 
 F                     0.36026  -2.47487   0.69769 
 C                     1.66501  -0.79583  -0.26886 
 F                     2.77035  -1.3437    0.33105 
 F                     1.56813  -1.42411  -1.47785 
 C                     1.89229   0.68634  -0.47645 
 F                     1.90429   1.37179   0.68747 
 F                     0.93926   1.2377   -1.26281 
 F                     3.07513   0.9244   -1.09394 
 
 NAtoms=     18 NQM=       18 NQMF=       0 NMMI=      0 NMMIF=      0
                NMic=       0 NMicF=      0.
                    Isotopes and Nuclear Properties:
 (Nuclear quadrupole moments (NQMom) in fm**2, nuclear magnetic moments (NMagM)
  in nuclear magnetons)

  Atom         1           2           3           4           5           6           7           8           9          10
 IAtWgt=          19          12          19          19          16          12          19          19          12          19
 AtmWgt=  18.9984033  12.0000000  18.9984033  18.9984033  15.9949146  12.0000000  18.9984033  18.9984033  12.0000000  18.9984033
 NucSpn=           1           0           1           1           0           0           1           1           0           1
 AtZEff=   0.0000000   0.0000000   0.0000000   0.0000000   0.0000000   0.0000000   0.0000000   0.0000000   0.0000000   0.0000000
 NQMom=    0.0000000   0.0000000   0.0000000   0.0000000   0.0000000   0.0000000   0.0000000   0.0000000   0.0000000   0.0000000
 NMagM=    2.6288670   0.0000000   2.6288670   2.6288670   0.0000000   0.0000000   2.6288670   2.6288670   0.0000000   2.6288670
 AtZNuc=   9.0000000   6.0000000   9.0000000   9.0000000   8.0000000   6.0000000   9.0000000   9.0000000   6.0000000   9.0000000

  Atom        11          12          13          14          15          16          17          18
 IAtWgt=          19          12          19          19          12          19          19          19
 AtmWgt=  18.9984033  12.0000000  18.9984033  18.9984033  12.0000000  18.9984033  18.9984033  18.9984033
 NucSpn=           1           0           1           1           0           1           1           1
 AtZEff=   0.0000000   0.0000000   0.0000000   0.0000000   0.0000000   0.0000000   0.0000000   0.0000000
 NQMom=    0.0000000   0.0000000   0.0000000   0.0000000   0.0000000   0.0000000   0.0000000   0.0000000
 NMagM=    2.6288670   0.0000000   2.6288670   2.6288670   0.0000000   2.6288670   2.6288670   2.6288670
 AtZNuc=   9.0000000   6.0000000   9.0000000   9.0000000   6.0000000   9.0000000   9.0000000   9.0000000
 Leave Link  101 at Sat Feb  1 13:58:23 2025, MaxMem=  5368709120 cpu:         0.6
 (Enter /home/k0335/k033513/app/g09/l202.exe)
                          Input orientation:                          
 ---------------------------------------------------------------------
 Center     Atomic      Atomic             Coordinates (Angstroms)
 Number     Number       Type             X           Y           Z
 ---------------------------------------------------------------------
      1          9           0       -3.020776    0.958044    1.130967
      2          6           0       -2.311161    1.220439    0.018661
      3          9           0       -2.879065    0.622396   -1.042285
      4          9           0       -2.327718    2.553388   -0.186145
      5          8           0       -0.977758    0.824598    0.194884
      6          6           0       -0.865881   -0.567340    0.041095
      7          9           0       -0.998064   -0.869250   -1.270492
      8          9           0       -1.896811   -1.153528    0.699517
      9          6           0        0.455913   -1.110863    0.581744
     10          9           0        0.646608   -0.659605    1.857546
     11          9           0        0.360263   -2.474872    0.697690
     12          6           0        1.665006   -0.795831   -0.268857
     13          9           0        2.770349   -1.343702    0.331054
     14          9           0        1.568128   -1.424106   -1.477850
     15          6           0        1.892285    0.686344   -0.476447
     16          9           0        1.904288    1.371786    0.687466
     17          9           0        0.939261    1.237697   -1.262814
     18          9           0        3.075134    0.924403   -1.093937
 ---------------------------------------------------------------------
                    Distance matrix (angstroms):
                    1          2          3          4          5
     1  F    0.000000
     2  C    1.345225   0.000000
     3  F    2.203580   1.343792   0.000000
     4  F    2.181796   1.348693   2.183046   0.000000
     5  O    2.251218   1.402037   2.277376   2.226273   0.000000
     6  C    2.856255   2.299020   2.577226   3.453628   1.404870
     7  F    3.632819   2.784410   2.411483   3.828608   2.239835
     8  F    2.430675   2.504191   2.674435   3.835532   2.238816
     9  C    4.082816   3.661793   4.094354   4.665296   2.439484
    10  F    4.073624   3.957835   4.741615   4.831833   2.757874
    11  F    4.837775   4.610088   4.807684   5.769732   3.595778
    12  C    5.195396   4.467428   4.822669   5.212097   3.134493
    13  F    6.282915   5.700364   6.137384   6.437786   4.332248
    14  F    5.791252   4.927682   4.914816   5.715468   3.786323
    15  C    5.176463   4.266069   4.805210   4.623695   2.950754
    16  F    4.962271   4.270857   5.141409   4.479872   2.974599
    17  F    4.635762   3.493955   3.873867   3.682854   2.443460
    18  F    6.489333   5.507966   5.962077   5.715635   4.254052
                    6          7          8          9         10
     6  C    0.000000
     7  F    1.352362   0.000000
     8  F    1.356449   2.183917   0.000000
     9  C    1.528024   2.367109   2.356056   0.000000
    10  F    2.365508   3.540271   2.837952   1.366627   0.000000
    11  F    2.360768   2.880419   2.615404   1.372266   2.173121
    12  C    2.560013   2.846156   3.708401   1.511514   2.361627
    13  F    3.729475   4.122013   4.685543   2.339588   2.703413
    14  F    2.994268   2.633667   4.101212   2.361582   3.543801
    15  C    3.073606   3.377055   4.373245   2.532368   2.968301
    16  F    3.442650   4.156860   4.563519   2.876198   2.660337
    17  F    2.866509   2.862257   4.196666   3.025187   3.663611
    18  F    4.364080   4.454133   5.679306   3.716253   4.137399
                   11         12         13         14         15
    11  F    0.000000
    12  C    2.335754   0.000000
    13  F    2.687468   1.371801   0.000000
    14  F    2.701115   1.365935   2.173461   0.000000
    15  C    3.703914   1.513801   2.354600   2.358365   0.000000
    16  F    4.144984   2.381255   2.872450   3.552268   1.350803
    17  F    4.238158   2.376950   3.543574   2.743521   1.353003
    18  F    4.704840   2.372430   2.695885   2.816727   1.355396
                   16         17         18
    16  F    0.000000
    17  F    2.180103   0.000000
    18  F    2.178171   2.165324   0.000000
 Symmetry turned off by external request.
 Stoichiometry    C5F12O
 Framework group  C1[X(C5F12O)]
 Deg. of freedom    48
 Full point group                 C1      NOp   1
 Rotational constants (GHZ):      0.6856748      0.3452974      0.2948554
 Leave Link  202 at Sat Feb  1 13:58:23 2025, MaxMem=  5368709120 cpu:         0.0
 (Enter /home/k0335/k033513/app/g09/l301.exe)
 Standard basis: 6-31G(d,p) (6D, 7F)
 Ernie: Thresh=  0.10000D-02 Tol=  0.10000D-05 Strict=F.
   270 basis functions,   504 primitive gaussians,   270 cartesian basis functions
    73 alpha electrons       73 beta electrons
       nuclear repulsion energy      1809.2348120985 Hartrees.
 IExCor=20419 DFT=T Ex+Corr=CAM-B3LYP ExCW=0 ScaHFX=  1.000000
 ScaDFX=  1.000000  1.000000  1.000000  0.810000 ScalE2=  1.000000  1.000000
 IRadAn=      0 IRanWt=     -1 IRanGd=            0 ICorTp=0 IEmpDi=  4
  HFx wShort=  0.000000 wLong=  0.330000 cFull=  0.190000 cShort=  0.000000 cLong=  0.460000
  DFx wShort=  0.000000 wLong=  0.330000 cFull=  0.190000 cShort=  0.000000 cLong=  0.460000
 NAtoms=   18 NActive=   18 NUniq=   18 SFac= 1.00D+00 NAtFMM=   60 NAOKFM=F Big=F
 Integral buffers will be    131072 words long.
 Raffenetti 2 integral format.
 Two-electron integral symmetry is turned off.
 Using the following non-standard input for PCM:
 eps=4.9
 --- end of non-standard input.
 ------------------------------------------------------------------------------
 Polarizable Continuum Model (PCM)
 =================================
 Model                : PCM (using non-symmetric T matrix).
 Atomic radii         : UFF (Universal Force Field).
 Polarization charges : Total charges.
 Charge compensation  : None.
 Solution method      : On-the-fly selection.
 Cavity type          : Scaled VdW (van der Waals Surface) (Alpha=1.100).
 Cavity algorithm     : GePol (No added spheres)
                        Default sphere list used, NSphG=   18.
                        Lebedev-Laikov grids with approx.  5.0 points / Ang**2.
                        Smoothing algorithm: Karplus/York (Gamma=1.0000).
                        Polarization charges: spherical gaussians, with
                                              point-specific exponents (IZeta= 3).
                        Self-potential: point-specific (ISelfS= 7).
                        Self-field    : sphere-specific E.n sum rule (ISelfD= 2).
 Solvent              : Generic,
                        Eps                           =   4.900000
                        Eps(infinity)                 =   0.000000
                        RSolv                         =   0.000000 Ang.
                        Molar volume                  =   0.000000 cm**3/mol
                        Thermal expansion coefficient =   0.000000 K**-1
                        Absolute temperature          = 298.150000 K
                        Numeral density               =   0.000000 Ang**-3
                        Hydrogen bond acidity         =   0.000000
                        Hydrogen bond basicity        =   0.000000
                        Surface tension at interface  =   0.000000 (cal/mol)*Ang**-2
                        Carbon aromaticity            =   0.000000
                        Electronegative halogenicity  =   0.000000
 ------------------------------------------------------------------------------
 Spheres list:
 ISph  on   Nord     Re0    Alpha      Xe            Ye            Ze
    1   F      1    1.6820  1.100     -3.020776      0.958044      1.130967
    2   C      2    1.9255  1.100     -2.311161      1.220439      0.018661
    3   F      3    1.6820  1.100     -2.879065      0.622396     -1.042285
    4   F      4    1.6820  1.100     -2.327718      2.553388     -0.186145
    5   O      5    1.7500  1.100     -0.977758      0.824598      0.194884
    6   C      6    1.9255  1.100     -0.865881     -0.567340      0.041095
    7   F      7    1.6820  1.100     -0.998064     -0.869250     -1.270492
    8   F      8    1.6820  1.100     -1.896811     -1.153528      0.699517
    9   C      9    1.9255  1.100      0.455913     -1.110863      0.581744
   10   F     10    1.6820  1.100      0.646608     -0.659605      1.857546
   11   F     11    1.6820  1.100      0.360263     -2.474872      0.697690
   12   C     12    1.9255  1.100      1.665006     -0.795831     -0.268857
   13   F     13    1.6820  1.100      2.770349     -1.343702      0.331054
   14   F     14    1.6820  1.100      1.568128     -1.424106     -1.477850
   15   C     15    1.9255  1.100      1.892285      0.686344     -0.476447
   16   F     16    1.6820  1.100      1.904288      1.371786      0.687466
   17   F     17    1.6820  1.100      0.939261      1.237697     -1.262814
   18   F     18    1.6820  1.100      3.075134      0.924403     -1.093937
 ------------------------------------------------------------------------------
 GePol: Number of generator spheres                  =      18
 GePol: Total number of spheres                      =      18
 GePol: Number of exposed spheres                    =      18 (100.00%)
 GePol: Number of points                             =    1848
 GePol: Average weight of points                     =       0.13
 GePol: Minimum weight of points                     =   0.10D-10
 GePol: Maximum weight of points                     =    0.20134
 GePol: Number of points with low weight             =      70
 GePol: Fraction of low-weight points (<1% of avg)   =       3.79%
 GePol: Cavity surface area                          =    232.367 Ang**2
 GePol: Cavity volume                                =    241.612 Ang**3
 Leave Link  301 at Sat Feb  1 13:58:24 2025, MaxMem=  5368709120 cpu:         0.6
 (Enter /home/k0335/k033513/app/g09/l302.exe)
 NPDir=0 NMtPBC=     1 NCelOv=     1 NCel=       1 NClECP=     1 NCelD=      1
         NCelK=      1 NCelE2=     1 NClLst=     1 CellRange=     0.0.
 One-electron integrals computed using PRISM.
 NBasis=   270 RedAO= T EigKep=  1.35D-03  NBF=   270
 NBsUse=   270 1.00D-06 EigRej= -1.00D+00 NBFU=   270
 Precomputing XC quadrature grid using
 IXCGrd= 4 IRadAn=           0 IRanWt=          -1 IRanGd=           0 AccXCQ= 0.00D+00.
 Generated NRdTot=       0 NPtTot=           0 NUsed=           0 NTot=          32
 NSgBfM=   269   269   269   269   269 MxSgAt=    18 MxSgA2=    18.
 Leave Link  302 at Sat Feb  1 13:58:24 2025, MaxMem=  5368709120 cpu:         3.7
 (Enter /home/k0335/k033513/app/g09/l303.exe)
 DipDrv:  MaxL=1.
 Leave Link  303 at Sat Feb  1 13:58:24 2025, MaxMem=  5368709120 cpu:         0.4
 (Enter /home/k0335/k033513/app/g09/l401.exe)
 ExpMin= 1.69D-01 ExpMax= 7.00D+03 ExpMxC= 1.05D+03 IAcc=1 IRadAn=         1 AccDes= 0.00D+00
 Harris functional with IExCor=20419 and IRadAn=       1 diagonalized for initial guess.
 HarFok:  IExCor=20419 AccDes= 0.00D+00 IRadAn=         1 IDoV= 1 UseB2=F ITyADJ=14
 ICtDFT=  3500011 ScaDFX=  1.000000  1.000000  1.000000  1.000000
 FoFCou: FMM=F IPFlag=           0 FMFlag=      100000 FMFlg1=           0
         NFxFlg=           0 DoJE=T BraDBF=F KetDBF=T FulRan=T
         wScrn=  0.000000 ICntrl=     500 IOpCl=  0 I1Cent=   200000004 NGrid=           0
         NMat0=    1 NMatS0=      1 NMatT0=    0 NMatD0=    1 NMtDS0=    0 NMtDT0=    0
 Symmetry not used in FoFCou.
 Harris En= -1421.60808154533    
 JPrj=0 DoOrth=F DoCkMO=F.
 Leave Link  401 at Sat Feb  1 13:58:24 2025, MaxMem=  5368709120 cpu:         3.6
 (Enter /home/k0335/k033513/app/g09/l502.exe)
 Closed shell SCF:
 Using DIIS extrapolation, IDIIS=  1040.
 Two-electron integral symmetry not used.
 Keep R1 ints in memory in canonical form, NReq=1348695316.
 IVT=      245386 IEndB=      245386 NGot=  5368709120 MDV=  4029964925
 LenX=  4029964925 LenY=  4029891584
 Requested convergence on RMS density matrix=1.00D-08 within 128 cycles.
 Requested convergence on MAX density matrix=1.00D-06.
 Requested convergence on             energy=1.00D-06.
 No special actions if energy rises.
 FoFCou: FMM=F IPFlag=           0 FMFlag=           0 FMFlg1=           0
         NFxFlg=           0 DoJE=F BraDBF=F KetDBF=F FulRan=T
         wScrn=  0.000000 ICntrl=     600 IOpCl=  0 I1Cent=           0 NGrid=           0
         NMat0=    1 NMatS0=  36585 NMatT0=    0 NMatD0=    1 NMtDS0=    0 NMtDT0=    0
 Symmetry not used in FoFCou.

 Cycle   1  Pass 1  IDiag  1:
 Inv3:  Mode=1 IEnd=    10245312.
 Iteration    1 A*A^-1 deviation from unit magnitude is 5.55D-15 for   1824.
 Iteration    1 A*A^-1 deviation from orthogonality  is 2.49D-15 for   1824   1440.
 Iteration    1 A^-1*A deviation from unit magnitude is 6.11D-15 for   1824.
 Iteration    1 A^-1*A deviation from orthogonality  is 5.66D-12 for   1828   1827.
 E= -1462.99009502098    
 DIIS: error= 4.48D-02 at cycle   1 NSaved=   1.
 NSaved= 1 IEnMin= 1 EnMin= -1462.99009502098     IErMin= 1 ErrMin= 4.48D-02
 ErrMax= 4.48D-02  0.00D+00 EMaxC= 1.00D-01 BMatC= 1.21D+00 BMatP= 1.21D+00
 IDIUse=3 WtCom= 5.52D-01 WtEn= 4.48D-01
 Coeff-Com:  0.100D+01
 Coeff-En:   0.100D+01
 Coeff:      0.100D+01
 Gap=     0.506 Goal=   None    Shift=    0.000
 GapD=    0.506 DampG=2.000 DampE=0.500 DampFc=1.0000 IDamp=-1.
 RMSDP=4.29D-03 MaxDP=1.07D-01              OVMax= 8.00D-02

 Cycle   2  Pass 1  IDiag  1:
 E= -1463.22474781711     Delta-E=       -0.234652796127 Rises=F Damp=F
 DIIS: error= 2.50D-02 at cycle   2 NSaved=   2.
 NSaved= 2 IEnMin= 2 EnMin= -1463.22474781711     IErMin= 2 ErrMin= 2.50D-02
 ErrMax= 2.50D-02  0.00D+00 EMaxC= 1.00D-01 BMatC= 4.20D-01 BMatP= 1.21D+00
 IDIUse=3 WtCom= 7.50D-01 WtEn= 2.50D-01
 Coeff-Com:  0.354D+00 0.646D+00
 Coeff-En:   0.273D+00 0.727D+00
 Coeff:      0.334D+00 0.666D+00
 Gap=     0.516 Goal=   None    Shift=    0.000
 RMSDP=1.85D-03 MaxDP=5.37D-02 DE=-2.35D-01 OVMax= 5.31D-02

 Cycle   3  Pass 1  IDiag  1:
 E= -1463.41134363455     Delta-E=       -0.186595817435 Rises=F Damp=F
 DIIS: error= 9.04D-03 at cycle   3 NSaved=   3.
 NSaved= 3 IEnMin= 3 EnMin= -1463.41134363455     IErMin= 3 ErrMin= 9.04D-03
 ErrMax= 9.04D-03  0.00D+00 EMaxC= 1.00D-01 BMatC= 7.22D-02 BMatP= 4.20D-01
 IDIUse=3 WtCom= 9.10D-01 WtEn= 9.04D-02
 Coeff-Com:  0.931D-01 0.330D+00 0.577D+00
 Coeff-En:   0.000D+00 0.868D-01 0.913D+00
 Coeff:      0.847D-01 0.308D+00 0.607D+00
 Gap=     0.507 Goal=   None    Shift=    0.000
 RMSDP=8.42D-04 MaxDP=2.32D-02 DE=-1.87D-01 OVMax= 3.06D-02

 Cycle   4  Pass 1  IDiag  1:
 E= -1463.45252431557     Delta-E=       -0.041180681026 Rises=F Damp=F
 DIIS: error= 2.81D-03 at cycle   4 NSaved=   4.
 NSaved= 4 IEnMin= 4 EnMin= -1463.45252431557     IErMin= 4 ErrMin= 2.81D-03
 ErrMax= 2.81D-03  0.00D+00 EMaxC= 1.00D-01 BMatC= 5.24D-03 BMatP= 7.22D-02
 IDIUse=3 WtCom= 9.72D-01 WtEn= 2.81D-02
 Coeff-Com:  0.610D-03 0.577D-01 0.273D+00 0.669D+00
 Coeff-En:   0.000D+00 0.000D+00 0.467D-02 0.995D+00
 Coeff:      0.593D-03 0.561D-01 0.266D+00 0.678D+00
 Gap=     0.500 Goal=   None    Shift=    0.000
 RMSDP=2.05D-04 MaxDP=6.59D-03 DE=-4.12D-02 OVMax= 8.19D-03

 Cycle   5  Pass 1  IDiag  1:
 E= -1463.45624464776     Delta-E=       -0.003720332191 Rises=F Damp=F
 DIIS: error= 2.17D-04 at cycle   5 NSaved=   5.
 NSaved= 5 IEnMin= 5 EnMin= -1463.45624464776     IErMin= 5 ErrMin= 2.17D-04
 ErrMax= 2.17D-04  0.00D+00 EMaxC= 1.00D-01 BMatC= 4.36D-05 BMatP= 5.24D-03
 IDIUse=3 WtCom= 9.98D-01 WtEn= 2.17D-03
 Coeff-Com: -0.681D-03 0.183D-01 0.957D-01 0.264D+00 0.622D+00
 Coeff-En:   0.000D+00 0.000D+00 0.000D+00 0.000D+00 0.100D+01
 Coeff:     -0.680D-03 0.182D-01 0.955D-01 0.264D+00 0.623D+00
 Gap=     0.499 Goal=   None    Shift=    0.000
 RMSDP=2.15D-05 MaxDP=8.42D-04 DE=-3.72D-03 OVMax= 6.73D-04

 Cycle   6  Pass 1  IDiag  1:
 E= -1463.45627078993     Delta-E=       -0.000026142171 Rises=F Damp=F
 DIIS: error= 7.91D-05 at cycle   6 NSaved=   6.
 NSaved= 6 IEnMin= 6 EnMin= -1463.45627078993     IErMin= 6 ErrMin= 7.91D-05
 ErrMax= 7.91D-05  0.00D+00 EMaxC= 1.00D-01 BMatC= 4.92D-06 BMatP= 4.36D-05
 IDIUse=1 WtCom= 1.00D+00 WtEn= 0.00D+00
 Coeff-Com: -0.301D-03-0.332D-02-0.118D-01-0.192D-01 0.248D+00 0.787D+00
 Coeff:     -0.301D-03-0.332D-02-0.118D-01-0.192D-01 0.248D+00 0.787D+00
 Gap=     0.499 Goal=   None    Shift=    0.000
 RMSDP=7.04D-06 MaxDP=2.15D-04 DE=-2.61D-05 OVMax= 2.60D-04

 Cycle   7  Pass 1  IDiag  1:
 E= -1463.45627439743     Delta-E=       -0.000003607496 Rises=F Damp=F
 DIIS: error= 1.38D-05 at cycle   7 NSaved=   7.
 NSaved= 7 IEnMin= 7 EnMin= -1463.45627439743     IErMin= 7 ErrMin= 1.38D-05
 ErrMax= 1.38D-05  0.00D+00 EMaxC= 1.00D-01 BMatC= 1.53D-07 BMatP= 4.92D-06
 IDIUse=1 WtCom= 1.00D+00 WtEn= 0.00D+00
 Coeff-Com: -0.612D-04-0.194D-02-0.818D-02-0.183D-01 0.521D-01 0.250D+00
 Coeff-Com:  0.727D+00
 Coeff:     -0.612D-04-0.194D-02-0.818D-02-0.183D-01 0.521D-01 0.250D+00
 Coeff:      0.727D+00
 Gap=     0.499 Goal=   None    Shift=    0.000
 RMSDP=1.62D-06 MaxDP=6.04D-05 DE=-3.61D-06 OVMax= 6.14D-05

 Cycle   8  Pass 1  IDiag  1:
 E= -1463.45627452696     Delta-E=       -0.000000129527 Rises=F Damp=F
 DIIS: error= 3.13D-06 at cycle   8 NSaved=   8.
 NSaved= 8 IEnMin= 8 EnMin= -1463.45627452696     IErMin= 8 ErrMin= 3.13D-06
 ErrMax= 3.13D-06  0.00D+00 EMaxC= 1.00D-01 BMatC= 1.23D-08 BMatP= 1.53D-07
 IDIUse=1 WtCom= 1.00D+00 WtEn= 0.00D+00
 Coeff-Com:  0.975D-05-0.353D-03-0.169D-02-0.460D-02-0.733D-02 0.450D-02
 Coeff-Com:  0.219D+00 0.791D+00
 Coeff:      0.975D-05-0.353D-03-0.169D-02-0.460D-02-0.733D-02 0.450D-02
 Coeff:      0.219D+00 0.791D+00
 Gap=     0.499 Goal=   None    Shift=    0.000
 RMSDP=4.88D-07 MaxDP=1.19D-05 DE=-1.30D-07 OVMax= 2.10D-05

 Cycle   9  Pass 1  IDiag  1:
 E= -1463.45627453837     Delta-E=       -0.000000011417 Rises=F Damp=F
 DIIS: error= 1.08D-06 at cycle   9 NSaved=   9.
 NSaved= 9 IEnMin= 9 EnMin= -1463.45627453837     IErMin= 9 ErrMin= 1.08D-06
 ErrMax= 1.08D-06  0.00D+00 EMaxC= 1.00D-01 BMatC= 1.44D-09 BMatP= 1.23D-08
 IDIUse=1 WtCom= 1.00D+00 WtEn= 0.00D+00
 Coeff-Com:  0.852D-05 0.237D-04 0.137D-04-0.268D-03-0.685D-02-0.185D-01
 Coeff-Com:  0.242D-01 0.302D+00 0.699D+00
 Coeff:      0.852D-05 0.237D-04 0.137D-04-0.268D-03-0.685D-02-0.185D-01
 Coeff:      0.242D-01 0.302D+00 0.699D+00
 Gap=     0.499 Goal=   None    Shift=    0.000
 RMSDP=1.42D-07 MaxDP=4.47D-06 DE=-1.14D-08 OVMax= 5.73D-06

 Cycle  10  Pass 1  IDiag  1:
 E= -1463.45627453937     Delta-E=       -0.000000000996 Rises=F Damp=F
 DIIS: error= 3.48D-07 at cycle  10 NSaved=  10.
 NSaved=10 IEnMin=10 EnMin= -1463.45627453937     IErMin=10 ErrMin= 3.48D-07
 ErrMax= 3.48D-07  0.00D+00 EMaxC= 1.00D-01 BMatC= 1.77D-10 BMatP= 1.44D-09
 IDIUse=1 WtCom= 1.00D+00 WtEn= 0.00D+00
 Coeff-Com:  0.239D-05 0.483D-04 0.187D-03 0.396D-03-0.204D-02-0.828D-02
 Coeff-Com: -0.130D-01 0.431D-01 0.301D+00 0.679D+00
 Coeff:      0.239D-05 0.483D-04 0.187D-03 0.396D-03-0.204D-02-0.828D-02
 Coeff:     -0.130D-01 0.431D-01 0.301D+00 0.679D+00
 Gap=     0.499 Goal=   None    Shift=    0.000
 RMSDP=4.32D-08 MaxDP=1.45D-06 DE=-9.96D-10 OVMax= 1.59D-06

 Cycle  11  Pass 1  IDiag  1:
 E= -1463.45627453951     Delta-E=       -0.000000000140 Rises=F Damp=F
 DIIS: error= 9.47D-08 at cycle  11 NSaved=  11.
 NSaved=11 IEnMin=11 EnMin= -1463.45627453951     IErMin=11 ErrMin= 9.47D-08
 ErrMax= 9.47D-08  0.00D+00 EMaxC= 1.00D-01 BMatC= 3.73D-12 BMatP= 1.77D-10
 IDIUse=1 WtCom= 1.00D+00 WtEn= 0.00D+00
 Coeff-Com:  0.553D-07 0.984D-05 0.413D-04 0.112D-03-0.393D-04-0.783D-03
 Coeff-Com: -0.391D-02-0.588D-02 0.265D-01 0.137D+00 0.847D+00
 Coeff:      0.553D-07 0.984D-05 0.413D-04 0.112D-03-0.393D-04-0.783D-03
 Coeff:     -0.391D-02-0.588D-02 0.265D-01 0.137D+00 0.847D+00
 Gap=     0.499 Goal=   None    Shift=    0.000
 RMSDP=8.54D-09 MaxDP=3.09D-07 DE=-1.40D-10 OVMax= 5.03D-07

 Error on total polarization charges =  0.00061
 SCF Done:  E(RCAM-B3LYP) =  -1463.45627454     A.U. after   11 cycles
            NFock= 11  Conv=0.85D-08     -V/T= 2.0069
 KE= 1.453369413320D+03 PE=-7.089945798716D+03 EE= 2.363885298758D+03
 Leave Link  502 at Sat Feb  1 13:58:36 2025, MaxMem=  5368709120 cpu:       148.9
 (Enter /home/k0335/k033513/app/g09/l601.exe)
 Copying SCF densities to generalized density rwf, IOpCl= 0 IROHF=0.

 **********************************************************************

            Population analysis using the SCF density.

 **********************************************************************

 Alpha  occ. eigenvalues --  -24.83829 -24.83729 -24.83644 -24.83532 -24.83525
 Alpha  occ. eigenvalues --  -24.83492 -24.83484 -24.83281 -24.83230 -24.83185
 Alpha  occ. eigenvalues --  -24.83094 -24.83040 -19.32923 -10.59641 -10.55435
 Alpha  occ. eigenvalues --  -10.54401 -10.50060 -10.49918  -1.43321  -1.42319
 Alpha  occ. eigenvalues --   -1.40403  -1.38768  -1.37231  -1.33752  -1.33322
 Alpha  occ. eigenvalues --   -1.33022  -1.32578  -1.32464  -1.32083  -1.31635
 Alpha  occ. eigenvalues --   -1.21293  -0.95352  -0.88339  -0.82641  -0.79050
 Alpha  occ. eigenvalues --   -0.75710  -0.73161  -0.72693  -0.71163  -0.70413
 Alpha  occ. eigenvalues --   -0.69984  -0.69666  -0.68110  -0.67790  -0.66405
 Alpha  occ. eigenvalues --   -0.65296  -0.64507  -0.61428  -0.58550  -0.57756
 Alpha  occ. eigenvalues --   -0.57027  -0.56587  -0.56126  -0.55834  -0.54974
 Alpha  occ. eigenvalues --   -0.54772  -0.54104  -0.53646  -0.53097  -0.52922
 Alpha  occ. eigenvalues --   -0.52668  -0.51949  -0.51642  -0.51257  -0.51063
 Alpha  occ. eigenvalues --   -0.50697  -0.50295  -0.50078  -0.49810  -0.49138
 Alpha  occ. eigenvalues --   -0.47738  -0.45296  -0.44520
 Alpha virt. eigenvalues --    0.05341   0.06174   0.13396   0.13901   0.19222
 Alpha virt. eigenvalues --    0.20485   0.21651   0.22476   0.23753   0.24160
 Alpha virt. eigenvalues --    0.24720   0.27182   0.28445   0.28994   0.31857
 Alpha virt. eigenvalues --    0.33553   0.34186   0.47916   0.50165   0.50885
 Alpha virt. eigenvalues --    0.51246   0.53115   0.53713   0.54701   0.55387
 Alpha virt. eigenvalues --    0.57927   0.60441   0.63443   0.63848   0.64872
 Alpha virt. eigenvalues --    0.72271   0.72717   0.75105   0.88217   0.90022
 Alpha virt. eigenvalues --    0.92554   0.95358   0.98609   1.01882   1.02909
 Alpha virt. eigenvalues --    1.07398   1.08618   1.09523   1.11812   1.12109
 Alpha virt. eigenvalues --    1.12482   1.13429   1.14339   1.16064   1.17579
 Alpha virt. eigenvalues --    1.20465   1.21111   1.21924   1.25737   1.27640
 Alpha virt. eigenvalues --    1.30758   1.30947   1.32826   1.33312   1.34694
 Alpha virt. eigenvalues --    1.34934   1.36196   1.36815   1.37097   1.37934
 Alpha virt. eigenvalues --    1.38864   1.39525   1.39963   1.40686   1.41016
 Alpha virt. eigenvalues --    1.41399   1.42188   1.43188   1.43585   1.43989
 Alpha virt. eigenvalues --    1.45854   1.46848   1.48580   1.49441   1.51028
 Alpha virt. eigenvalues --    1.52286   1.54103   1.57471   1.59347   1.60103
 Alpha virt. eigenvalues --    1.64904   1.65793   1.68104   1.70305   1.71552
 Alpha virt. eigenvalues --    1.72870   1.73358   1.73642   1.76384   1.78027
 Alpha virt. eigenvalues --    1.80870   1.82227   1.82748   1.83455   1.84114
 Alpha virt. eigenvalues --    1.85409   1.86233   1.87111   1.88014   1.89010
 Alpha virt. eigenvalues --    1.89504   1.91255   1.92457   1.93115   1.93558
 Alpha virt. eigenvalues --    1.94936   1.96225   1.97664   1.98770   1.99964
 Alpha virt. eigenvalues --    2.00525   2.02073   2.02949   2.03629   2.04796
 Alpha virt. eigenvalues --    2.05188   2.05663   2.06481   2.07233   2.07741
 Alpha virt. eigenvalues --    2.08781   2.09481   2.09788   2.11643   2.14213
 Alpha virt. eigenvalues --    2.16267   2.17089   2.19246   2.19660   2.22773
 Alpha virt. eigenvalues --    2.26102   2.28229   2.32097   2.34121   2.39127
 Alpha virt. eigenvalues --    2.39843   2.40971   2.42161   2.42985   2.44983
 Alpha virt. eigenvalues --    2.48055   2.48917   2.51610   2.53885   2.56919
 Alpha virt. eigenvalues --    2.60230   2.61696   2.65227   2.70640   2.72058
 Alpha virt. eigenvalues --    2.75275   2.78235   2.82717   2.84622   2.86963
 Alpha virt. eigenvalues --    2.88992   2.90227   2.92253   2.94175   2.95224
 Alpha virt. eigenvalues --    2.98337   3.03534   3.06127   3.07069   3.08009
 Alpha virt. eigenvalues --    3.09633   3.11005   3.14975   3.16542   3.20437
 Alpha virt. eigenvalues --    3.22225   3.23222   3.25911   3.30787   4.08269
 Alpha virt. eigenvalues --    4.19852   4.28418   4.38872   4.43145   4.46274
 Alpha virt. eigenvalues --    4.54311   4.75036   4.83705   4.89670   5.03508
 Alpha virt. eigenvalues --    5.20348   5.35120   5.51771   5.82310   5.88799
 Alpha virt. eigenvalues --    6.26305   6.52340
          Condensed to atoms (all electrons):
               1          2          3          4          5          6
     1  F    9.053713   0.315209  -0.034736  -0.038913  -0.045401  -0.003119
     2  C    0.315209   3.807235   0.299206   0.338206   0.228748   0.006084
     3  F   -0.034736   0.299206   9.049965  -0.037286  -0.043482   0.014229
     4  F   -0.038913   0.338206  -0.037286   9.021476  -0.039580  -0.000508
     5  O   -0.045401   0.228748  -0.043482  -0.039580   8.389786   0.154616
     6  C   -0.003119   0.006084   0.014229  -0.000508   0.154616   4.450030
     7  F   -0.000022  -0.001793  -0.003468  -0.000019  -0.047591   0.264051
     8  F   -0.002487   0.012177  -0.002812  -0.000014  -0.048954   0.263028
     9  C   -0.000385  -0.001084   0.000282  -0.000045  -0.030509   0.175551
    10  F    0.000002  -0.000058   0.000000   0.000000   0.001467  -0.025920
    11  F    0.000000   0.000018   0.000000   0.000000   0.000623  -0.018749
    12  C    0.000001  -0.000071  -0.000001   0.000001  -0.002147  -0.052348
    13  F    0.000000   0.000000   0.000000   0.000000   0.000000   0.002107
    14  F    0.000000   0.000002   0.000000   0.000000  -0.000014   0.000786
    15  C    0.000002   0.000098   0.000002  -0.000015   0.006642  -0.004079
    16  F    0.000000   0.000050   0.000000   0.000000   0.000738  -0.003014
    17  F    0.000000   0.001280  -0.000012  -0.000018  -0.012142   0.015920
    18  F    0.000000   0.000000   0.000000   0.000000  -0.000004  -0.000036
               7          8          9         10         11         12
     1  F   -0.000022  -0.002487  -0.000385   0.000002   0.000000   0.000001
     2  C   -0.001793   0.012177  -0.001084  -0.000058   0.000018  -0.000071
     3  F   -0.003468  -0.002812   0.000282   0.000000   0.000000  -0.000001
     4  F   -0.000019  -0.000014  -0.000045   0.000000   0.000000   0.000001
     5  O   -0.047591  -0.048954  -0.030509   0.001467   0.000623  -0.002147
     6  C    0.264051   0.263028   0.175551  -0.025920  -0.018749  -0.052348
     7  F    9.104537  -0.037416  -0.034034   0.000307  -0.000349   0.009494
     8  F   -0.037416   9.091055  -0.013451  -0.000659  -0.000919   0.001915
     9  C   -0.034034  -0.013451   4.839550   0.248526   0.247212   0.140576
    10  F    0.000307  -0.000659   0.248526   9.097969  -0.039209  -0.024804
    11  F   -0.000349  -0.000919   0.247212  -0.039209   9.093415  -0.013768
    12  C    0.009494   0.001915   0.140576  -0.024804  -0.013768   4.861116
    13  F    0.000001  -0.000001  -0.014893  -0.000819  -0.001044   0.243023
    14  F    0.000165  -0.000002  -0.023994   0.000300  -0.000828   0.242514
    15  C   -0.002563  -0.000037  -0.046178   0.001670   0.001696   0.181578
    16  F    0.000004   0.000000   0.008227   0.000268   0.000002  -0.035508
    17  F   -0.000291   0.000001  -0.007273  -0.000010   0.000001  -0.027691
    18  F    0.000001   0.000000   0.001986  -0.000002  -0.000001  -0.017128
              13         14         15         16         17         18
     1  F    0.000000   0.000000   0.000002   0.000000   0.000000   0.000000
     2  C    0.000000   0.000002   0.000098   0.000050   0.001280   0.000000
     3  F    0.000000   0.000000   0.000002   0.000000  -0.000012   0.000000
     4  F    0.000000   0.000000  -0.000015   0.000000  -0.000018   0.000000
     5  O    0.000000  -0.000014   0.006642   0.000738  -0.012142  -0.000004
     6  C    0.002107   0.000786  -0.004079  -0.003014   0.015920  -0.000036
     7  F    0.000001   0.000165  -0.002563   0.000004  -0.000291   0.000001
     8  F   -0.000001  -0.000002  -0.000037   0.000000   0.000001   0.000000
     9  C   -0.014893  -0.023994  -0.046178   0.008227  -0.007273   0.001986
    10  F   -0.000819   0.000300   0.001670   0.000268  -0.000010  -0.000002
    11  F   -0.001044  -0.000828   0.001696   0.000002   0.000001  -0.000001
    12  C    0.243023   0.242514   0.181578  -0.035508  -0.027691  -0.017128
    13  F    9.097690  -0.039258  -0.019330  -0.000230   0.000312  -0.000483
    14  F   -0.039258   9.099086  -0.018107   0.000303  -0.000180  -0.000738
    15  C   -0.019330  -0.018107   4.284188   0.279950   0.266368   0.289190
    16  F   -0.000230   0.000303   0.279950   9.066698  -0.037526  -0.038803
    17  F    0.000312  -0.000180   0.266368  -0.037526   9.081223  -0.040241
    18  F   -0.000483  -0.000738   0.289190  -0.038803  -0.040241   9.055038
 Mulliken charges:
               1
     1  F   -0.243864
     2  C    0.994693
     3  F   -0.241887
     4  F   -0.243286
     5  O   -0.512796
     6  C    0.761369
     7  F   -0.251015
     8  F   -0.261425
     9  C    0.509935
    10  F   -0.259030
    11  F   -0.268100
    12  C    0.493249
    13  F   -0.267075
    14  F   -0.260035
    15  C    0.778924
    16  F   -0.241158
    17  F   -0.239719
    18  F   -0.248780
 Sum of Mulliken charges =   0.00000
 Mulliken charges with hydrogens summed into heavy atoms:
               1
     1  F   -0.243864
     2  C    0.994693
     3  F   -0.241887
     4  F   -0.243286
     5  O   -0.512796
     6  C    0.761369
     7  F   -0.251015
     8  F   -0.261425
     9  C    0.509935
    10  F   -0.259030
    11  F   -0.268100
    12  C    0.493249
    13  F   -0.267075
    14  F   -0.260035
    15  C    0.778924
    16  F   -0.241158
    17  F   -0.239719
    18  F   -0.248780
 Electronic spatial extent (au):  <R**2>=           3542.7793
 Charge=              0.0000 electrons
 Dipole moment (field-independent basis, Debye):
    X=             -0.0776    Y=             -0.0016    Z=             -0.0748  Tot=              0.1078
 Quadrupole moment (field-independent basis, Debye-Ang):
   XX=            -93.2221   YY=            -93.5465   ZZ=            -92.9493
   XY=              0.1197   XZ=              0.2572   YZ=              0.0820
 Traceless Quadrupole moment (field-independent basis, Debye-Ang):
   XX=              0.0172   YY=             -0.3072   ZZ=              0.2900
   XY=              0.1197   XZ=              0.2572   YZ=              0.0820
 Octapole moment (field-independent basis, Debye-Ang**2):
  XXX=             -5.7375  YYY=              1.9531  ZZZ=             11.7352  XYY=             -1.6302
  XXY=              1.5957  XXZ=              3.8589  XZZ=             -0.9185  YZZ=              1.2285
  YYZ=              3.5767  XYZ=              0.4287
 Hexadecapole moment (field-independent basis, Debye-Ang**3):
 XXXX=          -2013.1163 YYYY=           -921.1934 ZZZZ=           -471.2032 XXXY=            176.6959
 XXXZ=             76.9666 YYYX=            185.3377 YYYZ=             50.4784 ZZZX=             68.9814
 ZZZY=             48.3106 XXYY=           -490.3851 XXZZ=           -416.1400 YYZZ=           -231.6678
 XXYZ=             16.1693 YYXZ=             23.2403 ZZXY=             59.6067
 N-N= 1.809234812099D+03 E-N=-7.089945794755D+03  KE= 1.453369413320D+03
 No NMR shielding tensors so no spin-rotation constants.
 Leave Link  601 at Sat Feb  1 13:58:36 2025, MaxMem=  5368709120 cpu:         1.4
 (Enter /home/k0335/k033513/app/g09/l9999.exe)
 1\1\GINC-C15U08N2\SP\RCAM-B3LYP\6-31G(d,p)\C5F12O1\K033513\01-Feb-2025
 \0\\#p CAM-B3LYP/6-31G(d,p) SCRF=(PCM,Solvent=Generic,Read) NoSymm out
 =wfn\\Title FFKM1_neu\\0,1\F,0,-3.020776,0.958044,1.130967\C,0,-2.3111
 61,1.220439,0.018661\F,0,-2.879065,0.622396,-1.042285\F,0,-2.327718,2.
 553388,-0.186145\O,0,-0.977758,0.824598,0.194884\C,0,-0.865881,-0.5673
 4,0.041095\F,0,-0.998064,-0.86925,-1.270492\F,0,-1.896811,-1.153528,0.
 699517\C,0,0.455913,-1.110863,0.581744\F,0,0.646608,-0.659605,1.857546
 \F,0,0.360263,-2.474872,0.69769\C,0,1.665006,-0.795831,-0.268857\F,0,2
 .770349,-1.343702,0.331054\F,0,1.568128,-1.424106,-1.47785\C,0,1.89228
 5,0.686344,-0.476447\F,0,1.904288,1.371786,0.687466\F,0,0.939261,1.237
 697,-1.262814\F,0,3.075134,0.924403,-1.093937\\Version=ES64L-G09RevD.0
 1\HF=-1463.4562745\RMSD=8.542e-09\Dipole=-0.0305366,-0.0006275,-0.0294
 299\Quadrupole=0.0128206,-0.2284209,0.2156004,0.0890214,0.1912184,0.06
 09941\PG=C01 [X(C5F12O1)]\\@

 Writing a WFN file to "wang5/FFKM1/FFKM1_neu.wfn"


 SUCCESS-- IF YOU HAVE TRIED TO DO SOMETHING AND FAILED
           YOU ARE BETTER OFF THAN IF YOU HAD TRIED TO DO
           NOTHING AND SUCCEEDED.

                   -- FROM THE BACK OF A SUGAR PACKET
 Job cpu time:       0 days  0 hours  2 minutes 42.6 seconds.
 File lengths (MBytes):  RWF=     87 Int=      0 D2E=      0 Chk=      4 Scr=      1
 Normal termination of Gaussian 09 at Sat Feb  1 13:58:36 2025.
