 Entering Gaussian System, Link 0=g09
 Initial command:
 /home/k0335/k033513/app/g09/l1.exe "/home/k0335/k033513/app/g09/scratch/Gau-1239713.inp" -scrdir="/home/k0335/k033513/app/g09/scratch/"
 Default is to use a total of  36 processors:
                               36 via shared-memory
                                1 via Linda
 Entering Link 1 = /home/k0335/k033513/app/g09/l1.exe PID=   1239714.
  
 Copyright (c) 1988,1990,1992,1993,1995,1998,2003,2009,2013,
            Gaussian, Inc.  All Rights Reserved.
  
 This is part of the Gaussian(R) 09 program.  It is based on
 the Gaussian(R) 03 system (copyright 2003, Gaussian, Inc.),
 the Gaussian(R) 98 system (copyright 1998, Gaussian, Inc.),
 the Gaussian(R) 94 system (copyright 1995, Gaussian, Inc.),
 the Gaussian 92(TM) system (copyright 1992, Gaussian, Inc.),
 the Gaussian 90(TM) system (copyright 1990, Gaussian, Inc.),
 the Gaussian 88(TM) system (copyright 1988, Gaussian, Inc.),
 the Gaussian 86(TM) system (copyright 1986, Carnegie Mellon
 University), and the Gaussian 82(TM) system (copyright 1983,
 Carnegie Mellon University). Gaussian is a federally registered
 trademark of Gaussian, Inc.
  
 This software contains proprietary and confidential information,
 including trade secrets, belonging to Gaussian, Inc.
  
 This software is provided under written license and may be
 used, copied, transmitted, or stored only in accord with that
 written license.
  
 The following legend is applicable only to US Government
 contracts under FAR:
  
                    RESTRICTED RIGHTS LEGEND
  
 Use, reproduction and disclosure by the US Government is
 subject to restrictions as set forth in subparagraphs (a)
 and (c) of the Commercial Computer Software - Restricted
 Rights clause in FAR 52.227-19.
  
 Gaussian, Inc.
 340 Quinnipiac St., Bldg. 40, Wallingford CT 06492
  
  
 ---------------------------------------------------------------
 Warning -- This program may not be used in any manner that
 competes with the business of Gaussian, Inc. or will provide
 assistance to any competitor of Gaussian, Inc.  The licensee
 of this program is prohibited from giving any competitor of
 Gaussian, Inc. access to this program.  By using this program,
 the user acknowledges that Gaussian, Inc. is engaged in the
 business of creating and licensing software in the field of
 computational chemistry and represents and warrants to the
 licensee that it is not a competitor of Gaussian, Inc. and that
 it will not use this program in any manner prohibited above.
 ---------------------------------------------------------------
  

 Cite this work as:
 Gaussian 09, Revision D.01,
 M. J. Frisch, G. W. Trucks, H. B. Schlegel, G. E. Scuseria, 
 M. A. Robb, J. R. Cheeseman, G. Scalmani, V. Barone, B. Mennucci, 
 G. A. Petersson, H. Nakatsuji, M. Caricato, X. Li, H. P. Hratchian, 
 A. F. Izmaylov, J. Bloino, G. Zheng, J. L. Sonnenberg, M. Hada, 
 M. Ehara, K. Toyota, R. Fukuda, J. Hasegawa, M. Ishida, T. Nakajima, 
 Y. Honda, O. Kitao, H. Nakai, T. Vreven, J. A. Montgomery, Jr., 
 J. E. Peralta, F. Ogliaro, M. Bearpark, J. J. Heyd, E. Brothers, 
 K. N. Kudin, V. N. Staroverov, T. Keith, R. Kobayashi, J. Normand, 
 K. Raghavachari, A. Rendell, J. C. Burant, S. S. Iyengar, J. Tomasi, 
 M. Cossi, N. Rega, J. M. Millam, M. Klene, J. E. Knox, J. B. Cross, 
 V. Bakken, C. Adamo, J. Jaramillo, R. Gomperts, R. E. Stratmann, 
 O. Yazyev, A. J. Austin, R. Cammi, C. Pomelli, J. W. Ochterski, 
 R. L. Martin, K. Morokuma, V. G. Zakrzewski, G. A. Voth, 
 P. Salvador, J. J. Dannenberg, S. Dapprich, A. D. Daniels, 
 O. Farkas, J. B. Foresman, J. V. Ortiz, J. Cioslowski, 
 and D. J. Fox, Gaussian, Inc., Wallingford CT, 2013.
 
 ******************************************
 Gaussian 09:  ES64L-G09RevD.01 24-Apr-2013
                 2-Feb-2025 
 ******************************************
 %nprocshared=24
 Will use up to   24 processors via shared memory.
 %mem=40GB
 %rwf=wang5/FFKM1/FFKM1_pos.rwf
 %nosave
 %chk=wang5/FFKM1/FFKM1_pos.chk
 ----------------------------------------------------------------------
 #p CAM-B3LYP/6-31G(d,p) SCRF=(PCM,Solvent=Generic,Read) NoSymm out=wfn
 ----------------------------------------------------------------------
 1/38=1,40=2/1;
 2/12=2,15=1,17=6,18=5,40=1/2;
 3/5=1,6=6,7=101,11=2,16=1,25=1,30=1,70=2203,72=-2,74=-40/1,2,3;
 4//1;
 5/5=2,38=5/2;
 6/7=2,8=2,9=2,10=2,28=1/1;
 99/5=1,6=100,9=1/99;
 Leave Link    1 at Sun Feb  2 05:48:35 2025, MaxMem=  5368709120 cpu:         0.8
 (Enter /home/k0335/k033513/app/g09/l101.exe)
 ---------------
 Title FFKM1_pos
 ---------------
 Symbolic Z-matrix:
 Charge =  1 Multiplicity = 2
 F                    -3.02078   0.95804   1.13097 
 C                    -2.31116   1.22044   0.01866 
 F                    -2.87907   0.6224   -1.04229 
 F                    -2.32772   2.55339  -0.18615 
 O                    -0.97776   0.8246    0.19488 
 C                    -0.86588  -0.56734   0.0411 
 F                    -0.99806  -0.86925  -1.27049 
 F                    -1.89681  -1.15353   0.69952 
 C                     0.45591  -1.11086   0.58174 
 F                     0.64661  -0.65961   1.85755 
 F                     0.36026  -2.47487   0.69769 
 C                     1.66501  -0.79583  -0.26886 
 F                     2.77035  -1.3437    0.33105 
 F                     1.56813  -1.42411  -1.47785 
 C                     1.89229   0.68634  -0.47645 
 F                     1.90429   1.37179   0.68747 
 F                     0.93926   1.2377   -1.26281 
 F                     3.07513   0.9244   -1.09394 
 
 NAtoms=     18 NQM=       18 NQMF=       0 NMMI=      0 NMMIF=      0
                NMic=       0 NMicF=      0.
                    Isotopes and Nuclear Properties:
 (Nuclear quadrupole moments (NQMom) in fm**2, nuclear magnetic moments (NMagM)
  in nuclear magnetons)

  Atom         1           2           3           4           5           6           7           8           9          10
 IAtWgt=          19          12          19          19          16          12          19          19          12          19
 AtmWgt=  18.9984033  12.0000000  18.9984033  18.9984033  15.9949146  12.0000000  18.9984033  18.9984033  12.0000000  18.9984033
 NucSpn=           1           0           1           1           0           0           1           1           0           1
 AtZEff=   0.0000000   0.0000000   0.0000000   0.0000000   0.0000000   0.0000000   0.0000000   0.0000000   0.0000000   0.0000000
 NQMom=    0.0000000   0.0000000   0.0000000   0.0000000   0.0000000   0.0000000   0.0000000   0.0000000   0.0000000   0.0000000
 NMagM=    2.6288670   0.0000000   2.6288670   2.6288670   0.0000000   0.0000000   2.6288670   2.6288670   0.0000000   2.6288670
 AtZNuc=   9.0000000   6.0000000   9.0000000   9.0000000   8.0000000   6.0000000   9.0000000   9.0000000   6.0000000   9.0000000

  Atom        11          12          13          14          15          16          17          18
 IAtWgt=          19          12          19          19          12          19          19          19
 AtmWgt=  18.9984033  12.0000000  18.9984033  18.9984033  12.0000000  18.9984033  18.9984033  18.9984033
 NucSpn=           1           0           1           1           0           1           1           1
 AtZEff=   0.0000000   0.0000000   0.0000000   0.0000000   0.0000000   0.0000000   0.0000000   0.0000000
 NQMom=    0.0000000   0.0000000   0.0000000   0.0000000   0.0000000   0.0000000   0.0000000   0.0000000
 NMagM=    2.6288670   0.0000000   2.6288670   2.6288670   0.0000000   2.6288670   2.6288670   2.6288670
 AtZNuc=   9.0000000   6.0000000   9.0000000   9.0000000   6.0000000   9.0000000   9.0000000   9.0000000
 Leave Link  101 at Sun Feb  2 05:48:35 2025, MaxMem=  5368709120 cpu:         0.6
 (Enter /home/k0335/k033513/app/g09/l202.exe)
                          Input orientation:                          
 ---------------------------------------------------------------------
 Center     Atomic      Atomic             Coordinates (Angstroms)
 Number     Number       Type             X           Y           Z
 ---------------------------------------------------------------------
      1          9           0       -3.020776    0.958044    1.130967
      2          6           0       -2.311161    1.220439    0.018661
      3          9           0       -2.879065    0.622396   -1.042285
      4          9           0       -2.327718    2.553388   -0.186145
      5          8           0       -0.977758    0.824598    0.194884
      6          6           0       -0.865881   -0.567340    0.041095
      7          9           0       -0.998064   -0.869250   -1.270492
      8          9           0       -1.896811   -1.153528    0.699517
      9          6           0        0.455913   -1.110863    0.581744
     10          9           0        0.646608   -0.659605    1.857546
     11          9           0        0.360263   -2.474872    0.697690
     12          6           0        1.665006   -0.795831   -0.268857
     13          9           0        2.770349   -1.343702    0.331054
     14          9           0        1.568128   -1.424106   -1.477850
     15          6           0        1.892285    0.686344   -0.476447
     16          9           0        1.904288    1.371786    0.687466
     17          9           0        0.939261    1.237697   -1.262814
     18          9           0        3.075134    0.924403   -1.093937
 ---------------------------------------------------------------------
                    Distance matrix (angstroms):
                    1          2          3          4          5
     1  F    0.000000
     2  C    1.345225   0.000000
     3  F    2.203580   1.343792   0.000000
     4  F    2.181796   1.348693   2.183046   0.000000
     5  O    2.251218   1.402037   2.277376   2.226273   0.000000
     6  C    2.856255   2.299020   2.577226   3.453628   1.404870
     7  F    3.632819   2.784410   2.411483   3.828608   2.239835
     8  F    2.430675   2.504191   2.674435   3.835532   2.238816
     9  C    4.082816   3.661793   4.094354   4.665296   2.439484
    10  F    4.073624   3.957835   4.741615   4.831833   2.757874
    11  F    4.837775   4.610088   4.807684   5.769732   3.595778
    12  C    5.195396   4.467428   4.822669   5.212097   3.134493
    13  F    6.282915   5.700364   6.137384   6.437786   4.332248
    14  F    5.791252   4.927682   4.914816   5.715468   3.786323
    15  C    5.176463   4.266069   4.805210   4.623695   2.950754
    16  F    4.962271   4.270857   5.141409   4.479872   2.974599
    17  F    4.635762   3.493955   3.873867   3.682854   2.443460
    18  F    6.489333   5.507966   5.962077   5.715635   4.254052
                    6          7          8          9         10
     6  C    0.000000
     7  F    1.352362   0.000000
     8  F    1.356449   2.183917   0.000000
     9  C    1.528024   2.367109   2.356056   0.000000
    10  F    2.365508   3.540271   2.837952   1.366627   0.000000
    11  F    2.360768   2.880419   2.615404   1.372266   2.173121
    12  C    2.560013   2.846156   3.708401   1.511514   2.361627
    13  F    3.729475   4.122013   4.685543   2.339588   2.703413
    14  F    2.994268   2.633667   4.101212   2.361582   3.543801
    15  C    3.073606   3.377055   4.373245   2.532368   2.968301
    16  F    3.442650   4.156860   4.563519   2.876198   2.660337
    17  F    2.866509   2.862257   4.196666   3.025187   3.663611
    18  F    4.364080   4.454133   5.679306   3.716253   4.137399
                   11         12         13         14         15
    11  F    0.000000
    12  C    2.335754   0.000000
    13  F    2.687468   1.371801   0.000000
    14  F    2.701115   1.365935   2.173461   0.000000
    15  C    3.703914   1.513801   2.354600   2.358365   0.000000
    16  F    4.144984   2.381255   2.872450   3.552268   1.350803
    17  F    4.238158   2.376950   3.543574   2.743521   1.353003
    18  F    4.704840   2.372430   2.695885   2.816727   1.355396
                   16         17         18
    16  F    0.000000
    17  F    2.180103   0.000000
    18  F    2.178171   2.165324   0.000000
 Symmetry turned off by external request.
 Stoichiometry    C5F12O(1+,2)
 Framework group  C1[X(C5F12O)]
 Deg. of freedom    48
 Full point group                 C1      NOp   1
 Rotational constants (GHZ):      0.6856748      0.3452974      0.2948554
 Leave Link  202 at Sun Feb  2 05:48:35 2025, MaxMem=  5368709120 cpu:         0.0
 (Enter /home/k0335/k033513/app/g09/l301.exe)
 Standard basis: 6-31G(d,p) (6D, 7F)
 Ernie: Thresh=  0.10000D-02 Tol=  0.10000D-05 Strict=F.
   270 basis functions,   504 primitive gaussians,   270 cartesian basis functions
    73 alpha electrons       72 beta electrons
       nuclear repulsion energy      1809.2348120985 Hartrees.
 IExCor=20419 DFT=T Ex+Corr=CAM-B3LYP ExCW=0 ScaHFX=  1.000000
 ScaDFX=  1.000000  1.000000  1.000000  0.810000 ScalE2=  1.000000  1.000000
 IRadAn=      0 IRanWt=     -1 IRanGd=            0 ICorTp=0 IEmpDi=  4
  HFx wShort=  0.000000 wLong=  0.330000 cFull=  0.190000 cShort=  0.000000 cLong=  0.460000
  DFx wShort=  0.000000 wLong=  0.330000 cFull=  0.190000 cShort=  0.000000 cLong=  0.460000
 NAtoms=   18 NActive=   18 NUniq=   18 SFac= 1.00D+00 NAtFMM=   60 NAOKFM=F Big=F
 Integral buffers will be    131072 words long.
 Raffenetti 2 integral format.
 Two-electron integral symmetry is turned off.
 Using the following non-standard input for PCM:
 eps=4.9
 --- end of non-standard input.
 ------------------------------------------------------------------------------
 Polarizable Continuum Model (PCM)
 =================================
 Model                : PCM (using non-symmetric T matrix).
 Atomic radii         : UFF (Universal Force Field).
 Polarization charges : Total charges.
 Charge compensation  : None.
 Solution method      : On-the-fly selection.
 Cavity type          : Scaled VdW (van der Waals Surface) (Alpha=1.100).
 Cavity algorithm     : GePol (No added spheres)
                        Default sphere list used, NSphG=   18.
                        Lebedev-Laikov grids with approx.  5.0 points / Ang**2.
                        Smoothing algorithm: Karplus/York (Gamma=1.0000).
                        Polarization charges: spherical gaussians, with
                                              point-specific exponents (IZeta= 3).
                        Self-potential: point-specific (ISelfS= 7).
                        Self-field    : sphere-specific E.n sum rule (ISelfD= 2).
 Solvent              : Generic,
                        Eps                           =   4.900000
                        Eps(infinity)                 =   0.000000
                        RSolv                         =   0.000000 Ang.
                        Molar volume                  =   0.000000 cm**3/mol
                        Thermal expansion coefficient =   0.000000 K**-1
                        Absolute temperature          = 298.150000 K
                        Numeral density               =   0.000000 Ang**-3
                        Hydrogen bond acidity         =   0.000000
                        Hydrogen bond basicity        =   0.000000
                        Surface tension at interface  =   0.000000 (cal/mol)*Ang**-2
                        Carbon aromaticity            =   0.000000
                        Electronegative halogenicity  =   0.000000
 ------------------------------------------------------------------------------
 Spheres list:
 ISph  on   Nord     Re0    Alpha      Xe            Ye            Ze
    1   F      1    1.6820  1.100     -3.020776      0.958044      1.130967
    2   C      2    1.9255  1.100     -2.311161      1.220439      0.018661
    3   F      3    1.6820  1.100     -2.879065      0.622396     -1.042285
    4   F      4    1.6820  1.100     -2.327718      2.553388     -0.186145
    5   O      5    1.7500  1.100     -0.977758      0.824598      0.194884
    6   C      6    1.9255  1.100     -0.865881     -0.567340      0.041095
    7   F      7    1.6820  1.100     -0.998064     -0.869250     -1.270492
    8   F      8    1.6820  1.100     -1.896811     -1.153528      0.699517
    9   C      9    1.9255  1.100      0.455913     -1.110863      0.581744
   10   F     10    1.6820  1.100      0.646608     -0.659605      1.857546
   11   F     11    1.6820  1.100      0.360263     -2.474872      0.697690
   12   C     12    1.9255  1.100      1.665006     -0.795831     -0.268857
   13   F     13    1.6820  1.100      2.770349     -1.343702      0.331054
   14   F     14    1.6820  1.100      1.568128     -1.424106     -1.477850
   15   C     15    1.9255  1.100      1.892285      0.686344     -0.476447
   16   F     16    1.6820  1.100      1.904288      1.371786      0.687466
   17   F     17    1.6820  1.100      0.939261      1.237697     -1.262814
   18   F     18    1.6820  1.100      3.075134      0.924403     -1.093937
 ------------------------------------------------------------------------------
 GePol: Number of generator spheres                  =      18
 GePol: Total number of spheres                      =      18
 GePol: Number of exposed spheres                    =      18 (100.00%)
 GePol: Number of points                             =    1848
 GePol: Average weight of points                     =       0.13
 GePol: Minimum weight of points                     =   0.10D-10
 GePol: Maximum weight of points                     =    0.20134
 GePol: Number of points with low weight             =      70
 GePol: Fraction of low-weight points (<1% of avg)   =       3.79%
 GePol: Cavity surface area                          =    232.367 Ang**2
 GePol: Cavity volume                                =    241.612 Ang**3
 Leave Link  301 at Sun Feb  2 05:48:35 2025, MaxMem=  5368709120 cpu:         0.6
 (Enter /home/k0335/k033513/app/g09/l302.exe)
 NPDir=0 NMtPBC=     1 NCelOv=     1 NCel=       1 NClECP=     1 NCelD=      1
         NCelK=      1 NCelE2=     1 NClLst=     1 CellRange=     0.0.
 One-electron integrals computed using PRISM.
 NBasis=   270 RedAO= T EigKep=  1.35D-03  NBF=   270
 NBsUse=   270 1.00D-06 EigRej= -1.00D+00 NBFU=   270
 Precomputing XC quadrature grid using
 IXCGrd= 4 IRadAn=           0 IRanWt=          -1 IRanGd=           0 AccXCQ= 0.00D+00.
 Generated NRdTot=       0 NPtTot=           0 NUsed=           0 NTot=          32
 NSgBfM=   269   269   269   269   269 MxSgAt=    18 MxSgA2=    18.
 Leave Link  302 at Sun Feb  2 05:48:35 2025, MaxMem=  5368709120 cpu:         4.1
 (Enter /home/k0335/k033513/app/g09/l303.exe)
 DipDrv:  MaxL=1.
 Leave Link  303 at Sun Feb  2 05:48:36 2025, MaxMem=  5368709120 cpu:         0.3
 (Enter /home/k0335/k033513/app/g09/l401.exe)
 ExpMin= 1.69D-01 ExpMax= 7.00D+03 ExpMxC= 1.05D+03 IAcc=1 IRadAn=         1 AccDes= 0.00D+00
 Harris functional with IExCor=20419 and IRadAn=       1 diagonalized for initial guess.
 HarFok:  IExCor=20419 AccDes= 0.00D+00 IRadAn=         1 IDoV= 1 UseB2=F ITyADJ=14
 ICtDFT=  3500011 ScaDFX=  1.000000  1.000000  1.000000  1.000000
 FoFCou: FMM=F IPFlag=           0 FMFlag=      100000 FMFlg1=           0
         NFxFlg=           0 DoJE=T BraDBF=F KetDBF=T FulRan=T
         wScrn=  0.000000 ICntrl=     500 IOpCl=  0 I1Cent=   200000004 NGrid=           0
         NMat0=    1 NMatS0=      1 NMatT0=    0 NMatD0=    1 NMtDS0=    0 NMtDT0=    0
 Symmetry not used in FoFCou.
 Harris En= -1421.50372934132    
 JPrj=0 DoOrth=F DoCkMO=F.
 Initial guess <Sx>= 0.0000 <Sy>= 0.0000 <Sz>= 0.5000 <S**2>= 0.7500 S= 0.5000
 Leave Link  401 at Sun Feb  2 05:48:36 2025, MaxMem=  5368709120 cpu:         3.7
 (Enter /home/k0335/k033513/app/g09/l502.exe)
 UHF open shell SCF:
 Using DIIS extrapolation, IDIIS=  1040.
 Two-electron integral symmetry not used.
 Keep R1 and R2 ints in memory in canonical form, NReq=2687194126.
 IVT=      245386 IEndB=      245386 NGot=  5368709120 MDV=  2691466115
 LenX=  2691466115 LenY=  2691392774
 Requested convergence on RMS density matrix=1.00D-08 within 128 cycles.
 Requested convergence on MAX density matrix=1.00D-06.
 Requested convergence on             energy=1.00D-06.
 No special actions if energy rises.
 FoFCou: FMM=F IPFlag=           0 FMFlag=           0 FMFlg1=           0
         NFxFlg=           0 DoJE=F BraDBF=F KetDBF=F FulRan=T
         wScrn=  0.000000 ICntrl=     600 IOpCl=  0 I1Cent=           0 NGrid=           0
         NMat0=    1 NMatS0=  36585 NMatT0=    0 NMatD0=    1 NMtDS0=    0 NMtDT0=    0
 Symmetry not used in FoFCou.

 Cycle   1  Pass 1  IDiag  1:
 Inv3:  Mode=1 IEnd=    10245312.
 Iteration    1 A*A^-1 deviation from unit magnitude is 5.55D-15 for   1824.
 Iteration    1 A*A^-1 deviation from orthogonality  is 2.46D-15 for   1822   1125.
 Iteration    1 A^-1*A deviation from unit magnitude is 6.11D-15 for   1824.
 Iteration    1 A^-1*A deviation from orthogonality  is 4.75D-12 for   1828   1827.
 E= -1462.44296713053    
 DIIS: error= 4.51D-02 at cycle   1 NSaved=   1.
 NSaved= 1 IEnMin= 1 EnMin= -1462.44296713053     IErMin= 1 ErrMin= 4.51D-02
 ErrMax= 4.51D-02  0.00D+00 EMaxC= 1.00D-01 BMatC= 5.60D+00 BMatP= 5.60D+00
 IDIUse=3 WtCom= 5.49D-01 WtEn= 4.51D-01
 Coeff-Com:  0.100D+01
 Coeff-En:   0.100D+01
 Coeff:      0.100D+01
 Gap=     0.507 Goal=   None    Shift=    0.000
 Gap=     0.071 Goal=   None    Shift=    0.000
 GapD=    0.071 DampG=0.500 DampE=0.500 DampFc=0.2500 IDamp=-1.
 Damping current iteration by 2.50D-01
 RMSDP=4.62D-03 MaxDP=1.05D-01              OVMax= 1.59D-01

 Cycle   2  Pass 1  IDiag  1:
 E= -1462.63839133604     Delta-E=       -0.195424205511 Rises=F Damp=T
 DIIS: error= 3.27D-02 at cycle   2 NSaved=   2.
 NSaved= 2 IEnMin= 2 EnMin= -1462.63839133604     IErMin= 2 ErrMin= 3.27D-02
 ErrMax= 3.27D-02  0.00D+00 EMaxC= 1.00D-01 BMatC= 2.31D+00 BMatP= 5.60D+00
 IDIUse=3 WtCom= 6.73D-01 WtEn= 3.27D-01
 Coeff-Com: -0.161D+01 0.261D+01
 Coeff-En:   0.000D+00 0.100D+01
 Coeff:     -0.108D+01 0.208D+01
 Gap=     0.463 Goal=   None    Shift=    0.000
 Gap=     0.123 Goal=   None    Shift=    0.000
 RMSDP=2.46D-03 MaxDP=5.18D-02 DE=-1.95D-01 OVMax= 6.36D-02

 Cycle   3  Pass 1  IDiag  1:
 E= -1463.01789547501     Delta-E=       -0.379504138974 Rises=F Damp=F
 DIIS: error= 5.43D-03 at cycle   3 NSaved=   3.
 NSaved= 3 IEnMin= 3 EnMin= -1463.01789547501     IErMin= 3 ErrMin= 5.43D-03
 ErrMax= 5.43D-03  0.00D+00 EMaxC= 1.00D-01 BMatC= 7.94D-02 BMatP= 2.31D+00
 IDIUse=3 WtCom= 9.46D-01 WtEn= 5.43D-02
 Coeff-Com: -0.424D+00 0.717D+00 0.707D+00
 Coeff-En:   0.000D+00 0.000D+00 0.100D+01
 Coeff:     -0.401D+00 0.678D+00 0.723D+00
 Gap=     0.479 Goal=   None    Shift=    0.000
 Gap=     0.119 Goal=   None    Shift=    0.000
 RMSDP=6.31D-04 MaxDP=2.44D-02 DE=-3.80D-01 OVMax= 3.37D-02

 Cycle   4  Pass 1  IDiag  1:
 E= -1463.02941691339     Delta-E=       -0.011521438380 Rises=F Damp=F
 DIIS: error= 2.81D-03 at cycle   4 NSaved=   4.
 NSaved= 4 IEnMin= 4 EnMin= -1463.02941691339     IErMin= 4 ErrMin= 2.81D-03
 ErrMax= 2.81D-03  0.00D+00 EMaxC= 1.00D-01 BMatC= 2.40D-02 BMatP= 7.94D-02
 IDIUse=3 WtCom= 9.72D-01 WtEn= 2.81D-02
 Coeff-Com:  0.763D-01-0.101D+00 0.349D+00 0.675D+00
 Coeff-En:   0.000D+00 0.000D+00 0.191D+00 0.809D+00
 Coeff:      0.742D-01-0.980D-01 0.345D+00 0.679D+00
 Gap=     0.461 Goal=   None    Shift=    0.000
 Gap=     0.118 Goal=   None    Shift=    0.000
 RMSDP=2.15D-04 MaxDP=7.75D-03 DE=-1.15D-02 OVMax= 8.97D-03

 Cycle   5  Pass 1  IDiag  1:
 E= -1463.03379309578     Delta-E=       -0.004376182384 Rises=F Damp=F
 DIIS: error= 3.04D-04 at cycle   5 NSaved=   5.
 NSaved= 5 IEnMin= 5 EnMin= -1463.03379309578     IErMin= 5 ErrMin= 3.04D-04
 ErrMax= 3.04D-04  0.00D+00 EMaxC= 1.00D-01 BMatC= 2.55D-04 BMatP= 2.40D-02
 IDIUse=3 WtCom= 9.97D-01 WtEn= 3.04D-03
 Coeff-Com:  0.372D-01-0.507D-01 0.145D+00 0.289D+00 0.580D+00
 Coeff-En:   0.000D+00 0.000D+00 0.000D+00 0.000D+00 0.100D+01
 Coeff:      0.371D-01-0.506D-01 0.144D+00 0.288D+00 0.582D+00
 Gap=     0.462 Goal=   None    Shift=    0.000
 Gap=     0.118 Goal=   None    Shift=    0.000
 RMSDP=3.62D-05 MaxDP=1.32D-03 DE=-4.38D-03 OVMax= 7.81D-03

 Cycle   6  Pass 1  IDiag  1:
 E= -1463.03387055662     Delta-E=       -0.000077460846 Rises=F Damp=F
 DIIS: error= 2.22D-04 at cycle   6 NSaved=   6.
 NSaved= 6 IEnMin= 6 EnMin= -1463.03387055662     IErMin= 6 ErrMin= 2.22D-04
 ErrMax= 2.22D-04  0.00D+00 EMaxC= 1.00D-01 BMatC= 4.59D-05 BMatP= 2.55D-04
 IDIUse=3 WtCom= 9.98D-01 WtEn= 2.22D-03
 Coeff-Com:  0.416D-03-0.106D-02-0.141D-01-0.385D-01 0.205D+00 0.848D+00
 Coeff-En:   0.000D+00 0.000D+00 0.000D+00 0.000D+00 0.000D+00 0.100D+01
 Coeff:      0.415D-03-0.106D-02-0.141D-01-0.384D-01 0.205D+00 0.848D+00
 Gap=     0.463 Goal=   None    Shift=    0.000
 Gap=     0.118 Goal=   None    Shift=    0.000
 RMSDP=4.36D-05 MaxDP=2.05D-03 DE=-7.75D-05 OVMax= 1.25D-02

 Cycle   7  Pass 1  IDiag  1:
 E= -1463.03393020279     Delta-E=       -0.000059646171 Rises=F Damp=F
 DIIS: error= 2.19D-04 at cycle   7 NSaved=   7.
 NSaved= 7 IEnMin= 7 EnMin= -1463.03393020279     IErMin= 7 ErrMin= 2.19D-04
 ErrMax= 2.19D-04  0.00D+00 EMaxC= 1.00D-01 BMatC= 1.71D-05 BMatP= 4.59D-05
 IDIUse=3 WtCom= 9.98D-01 WtEn= 2.19D-03
 Coeff-Com: -0.815D-03 0.102D-02-0.128D-01-0.366D-01 0.303D-01 0.305D+00
 Coeff-Com:  0.714D+00
 Coeff-En:   0.000D+00 0.000D+00 0.000D+00 0.000D+00 0.000D+00 0.000D+00
 Coeff-En:   0.100D+01
 Coeff:     -0.813D-03 0.101D-02-0.128D-01-0.365D-01 0.302D-01 0.304D+00
 Coeff:      0.715D+00
 Gap=     0.464 Goal=   None    Shift=    0.000
 Gap=     0.119 Goal=   None    Shift=    0.000
 RMSDP=3.18D-05 MaxDP=1.51D-03 DE=-5.96D-05 OVMax= 9.60D-03

 Cycle   8  Pass 1  IDiag  1:
 E= -1463.03396775027     Delta-E=       -0.000037547479 Rises=F Damp=F
 DIIS: error= 2.09D-04 at cycle   8 NSaved=   8.
 NSaved= 8 IEnMin= 8 EnMin= -1463.03396775027     IErMin= 8 ErrMin= 2.09D-04
 ErrMax= 2.09D-04  0.00D+00 EMaxC= 1.00D-01 BMatC= 1.15D-05 BMatP= 1.71D-05
 IDIUse=3 WtCom= 9.98D-01 WtEn= 2.09D-03
 Coeff-Com:  0.426D-02-0.555D-02 0.143D-01 0.219D-01-0.620D-01-0.292D+00
 Coeff-Com: -0.181D+00 0.150D+01
 Coeff-En:   0.000D+00 0.000D+00 0.000D+00 0.000D+00 0.000D+00 0.000D+00
 Coeff-En:   0.000D+00 0.100D+01
 Coeff:      0.425D-02-0.554D-02 0.143D-01 0.218D-01-0.619D-01-0.292D+00
 Coeff:     -0.180D+00 0.150D+01
 Gap=     0.465 Goal=   None    Shift=    0.000
 Gap=     0.119 Goal=   None    Shift=    0.000
 RMSDP=6.50D-05 MaxDP=3.59D-03 DE=-3.75D-05 OVMax= 2.01D-02

 Cycle   9  Pass 1  IDiag  1:
 E= -1463.03403628685     Delta-E=       -0.000068536575 Rises=F Damp=F
 DIIS: error= 1.87D-04 at cycle   9 NSaved=   9.
 NSaved= 9 IEnMin= 9 EnMin= -1463.03403628685     IErMin= 9 ErrMin= 1.87D-04
 ErrMax= 1.87D-04  0.00D+00 EMaxC= 1.00D-01 BMatC= 1.39D-05 BMatP= 1.15D-05
 IDIUse=3 WtCom= 9.98D-01 WtEn= 2.09D-03
 Coeff-Com:  0.493D-02-0.647D-02 0.174D-01 0.288D-01-0.533D-01-0.301D+00
 Coeff-Com: -0.337D+00 0.142D+01 0.225D+00
 Coeff-En:   0.000D+00 0.000D+00 0.000D+00 0.000D+00 0.000D+00 0.000D+00
 Coeff-En:   0.000D+00 0.000D+00 0.100D+01
 Coeff:      0.492D-02-0.646D-02 0.174D-01 0.287D-01-0.532D-01-0.300D+00
 Coeff:     -0.336D+00 0.142D+01 0.227D+00
 Gap=     0.466 Goal=   None    Shift=    0.000
 Gap=     0.119 Goal=   None    Shift=    0.000
 RMSDP=1.68D-05 MaxDP=9.20D-04 DE=-6.85D-05 OVMax= 5.18D-03

 Cycle  10  Pass 1  IDiag  1:
 E= -1463.03405309853     Delta-E=       -0.000016811685 Rises=F Damp=F
 DIIS: error= 1.83D-04 at cycle  10 NSaved=  10.
 NSaved=10 IEnMin=10 EnMin= -1463.03405309853     IErMin=10 ErrMin= 1.83D-04
 ErrMax= 1.83D-04  0.00D+00 EMaxC= 1.00D-01 BMatC= 1.24D-05 BMatP= 1.15D-05
 IDIUse=3 WtCom= 9.98D-01 WtEn= 1.83D-03
 Coeff-Com:  0.241D-02-0.338D-02 0.206D-02-0.193D-02 0.698D-01 0.226D+00
 Coeff-Com: -0.216D-01-0.635D+00-0.813D+01 0.950D+01
 Coeff-En:   0.000D+00 0.000D+00 0.000D+00 0.000D+00 0.000D+00 0.000D+00
 Coeff-En:   0.000D+00 0.000D+00 0.000D+00 0.100D+01
 Coeff:      0.241D-02-0.337D-02 0.205D-02-0.192D-02 0.697D-01 0.225D+00
 Coeff:     -0.215D-01-0.634D+00-0.812D+01 0.948D+01
 Gap=     0.472 Goal=   None    Shift=    0.000
 Gap=     0.119 Goal=   None    Shift=    0.000
 RMSDP=1.69D-04 MaxDP=1.02D-02 DE=-1.68D-05 OVMax= 5.24D-02

 Cycle  11  Pass 1  IDiag  1:
 E= -1463.03419576239     Delta-E=       -0.000142663860 Rises=F Damp=F
 DIIS: error= 1.15D-04 at cycle  11 NSaved=  11.
 NSaved=11 IEnMin=11 EnMin= -1463.03419576239     IErMin=11 ErrMin= 1.15D-04
 ErrMax= 1.15D-04  0.00D+00 EMaxC= 1.00D-01 BMatC= 1.52D-05 BMatP= 1.15D-05
 IDIUse=3 WtCom= 9.98D-01 WtEn= 1.83D-03
 Coeff-Com:  0.705D-03-0.106D-02-0.650D-02-0.207D-01 0.586D-01 0.292D+00
 Coeff-Com:  0.404D+00-0.583D+00-0.887D+01 0.908D+01 0.640D+00
 Coeff-En:   0.000D+00 0.000D+00 0.000D+00 0.000D+00 0.000D+00 0.000D+00
 Coeff-En:   0.000D+00 0.000D+00 0.000D+00 0.000D+00 0.100D+01
 Coeff:      0.704D-03-0.106D-02-0.649D-02-0.206D-01 0.585D-01 0.292D+00
 Coeff:      0.403D+00-0.582D+00-0.885D+01 0.907D+01 0.641D+00
 Gap=     0.474 Goal=   None    Shift=    0.000
 Gap=     0.119 Goal=   None    Shift=    0.000
 RMSDP=6.28D-05 MaxDP=4.06D-03 DE=-1.43D-04 OVMax= 1.92D-02

 Cycle  12  Pass 1  IDiag  1:
 E= -1463.03423853915     Delta-E=       -0.000042776757 Rises=F Damp=F
 DIIS: error= 9.67D-05 at cycle  12 NSaved=  12.
 NSaved=12 IEnMin=12 EnMin= -1463.03423853915     IErMin=12 ErrMin= 9.67D-05
 ErrMax= 9.67D-05  0.00D+00 EMaxC= 1.00D-01 BMatC= 1.08D-05 BMatP= 1.15D-05
 IDIUse=1 WtCom= 1.00D+00 WtEn= 0.00D+00
 Coeff-Com: -0.669D-03 0.962D-03-0.899D-02-0.243D-01-0.294D-01 0.389D-01
 Coeff-Com:  0.627D+00 0.407D+00-0.440D+01 0.270D+01-0.133D+01 0.302D+01
 Coeff:     -0.669D-03 0.962D-03-0.899D-02-0.243D-01-0.294D-01 0.389D-01
 Coeff:      0.627D+00 0.407D+00-0.440D+01 0.270D+01-0.133D+01 0.302D+01
 Gap=     0.484 Goal=   None    Shift=    0.000
 Gap=     0.119 Goal=   None    Shift=    0.000
 RMSDP=2.28D-04 MaxDP=1.63D-02 DE=-4.28D-05 OVMax= 6.92D-02

 Cycle  13  Pass 1  IDiag  1:
 E= -1463.03433461743     Delta-E=       -0.000096078281 Rises=F Damp=F
 DIIS: error= 7.35D-05 at cycle  13 NSaved=  13.
 NSaved=13 IEnMin=13 EnMin= -1463.03433461743     IErMin=13 ErrMin= 7.35D-05
 ErrMax= 7.35D-05  0.00D+00 EMaxC= 1.00D-01 BMatC= 2.01D-05 BMatP= 1.08D-05
 IDIUse=1 WtCom= 1.00D+00 WtEn= 0.00D+00
 Coeff-Com:  0.204D-03-0.160D-03-0.348D-02-0.125D-01-0.459D-01-0.692D-01
 Coeff-Com:  0.423D+00 0.761D+00-0.233D+01 0.807D+00-0.211D+01 0.332D+01
 Coeff-Com:  0.262D+00
 Coeff:      0.204D-03-0.160D-03-0.348D-02-0.125D-01-0.459D-01-0.692D-01
 Coeff:      0.423D+00 0.761D+00-0.233D+01 0.807D+00-0.211D+01 0.332D+01
 Coeff:      0.262D+00
 Gap=     0.485 Goal=   None    Shift=    0.000
 Gap=     0.120 Goal=   None    Shift=    0.000
 RMSDP=3.23D-05 MaxDP=2.28D-03 DE=-9.61D-05 OVMax= 9.24D-03

 Cycle  14  Pass 1  IDiag  1:
 E= -1463.03434345356     Delta-E=       -0.000008836127 Rises=F Damp=F
 DIIS: error= 4.97D-05 at cycle  14 NSaved=  14.
 NSaved=14 IEnMin=14 EnMin= -1463.03434345356     IErMin=14 ErrMin= 4.97D-05
 ErrMax= 4.97D-05  0.00D+00 EMaxC= 1.00D-01 BMatC= 9.64D-06 BMatP= 1.08D-05
 IDIUse=1 WtCom= 1.00D+00 WtEn= 0.00D+00
 Coeff-Com:  0.201D-02-0.267D-02 0.844D-02 0.162D-01-0.965D-02-0.110D+00
 Coeff-Com: -0.319D+00 0.371D+00-0.224D+00 0.739D+00-0.202D+01 0.156D+01
 Coeff-Com: -0.883D+00 0.187D+01
 Coeff:      0.201D-02-0.267D-02 0.844D-02 0.162D-01-0.965D-02-0.110D+00
 Coeff:     -0.319D+00 0.371D+00-0.224D+00 0.739D+00-0.202D+01 0.156D+01
 Coeff:     -0.883D+00 0.187D+01
 Gap=     0.489 Goal=   None    Shift=    0.000
 Gap=     0.119 Goal=   None    Shift=    0.000
 RMSDP=6.61D-05 MaxDP=4.97D-03 DE=-8.84D-06 OVMax= 1.91D-02

 Cycle  15  Pass 1  IDiag  1:
 E= -1463.03435311633     Delta-E=       -0.000009662769 Rises=F Damp=F
 DIIS: error= 2.01D-05 at cycle  15 NSaved=  15.
 NSaved=15 IEnMin=15 EnMin= -1463.03435311633     IErMin=15 ErrMin= 2.01D-05
 ErrMax= 2.01D-05  0.00D+00 EMaxC= 1.00D-01 BMatC= 1.42D-06 BMatP= 9.64D-06
 IDIUse=1 WtCom= 1.00D+00 WtEn= 0.00D+00
 Coeff-Com:  0.197D-03-0.302D-03 0.819D-03 0.180D-02 0.184D-01 0.542D-01
 Coeff-Com: -0.990D-01-0.211D+00-0.803D+00 0.119D+01 0.115D+00-0.308D+00
 Coeff-Com: -0.772D+00 0.759D+00 0.105D+01
 Coeff:      0.197D-03-0.302D-03 0.819D-03 0.180D-02 0.184D-01 0.542D-01
 Coeff:     -0.990D-01-0.211D+00-0.803D+00 0.119D+01 0.115D+00-0.308D+00
 Coeff:     -0.772D+00 0.759D+00 0.105D+01
 Gap=     0.490 Goal=   None    Shift=    0.000
 Gap=     0.119 Goal=   None    Shift=    0.000
 RMSDP=2.32D-05 MaxDP=1.75D-03 DE=-9.66D-06 OVMax= 6.53D-03

 Cycle  16  Pass 1  IDiag  1:
 E= -1463.03435436744     Delta-E=       -0.000001251115 Rises=F Damp=F
 DIIS: error= 8.40D-06 at cycle  16 NSaved=  16.
 NSaved=16 IEnMin=16 EnMin= -1463.03435436744     IErMin=16 ErrMin= 8.40D-06
 ErrMax= 8.40D-06  0.00D+00 EMaxC= 1.00D-01 BMatC= 9.58D-08 BMatP= 1.42D-06
 IDIUse=1 WtCom= 1.00D+00 WtEn= 0.00D+00
 Coeff-Com: -0.257D-03 0.323D-03-0.136D-02-0.277D-02 0.864D-02 0.443D-01
 Coeff-Com:  0.182D-01-0.142D+00-0.405D+00 0.461D+00 0.349D+00-0.331D+00
 Coeff-Com: -0.184D+00 0.856D-03 0.318D+00 0.866D+00
 Coeff:     -0.257D-03 0.323D-03-0.136D-02-0.277D-02 0.864D-02 0.443D-01
 Coeff:      0.182D-01-0.142D+00-0.405D+00 0.461D+00 0.349D+00-0.331D+00
 Coeff:     -0.184D+00 0.856D-03 0.318D+00 0.866D+00
 Gap=     0.490 Goal=   None    Shift=    0.000
 Gap=     0.119 Goal=   None    Shift=    0.000
 RMSDP=6.40D-06 MaxDP=4.77D-04 DE=-1.25D-06 OVMax= 1.71D-03

 Cycle  17  Pass 1  IDiag  1:
 E= -1463.03435450291     Delta-E=       -0.000000135470 Rises=F Damp=F
 DIIS: error= 3.96D-06 at cycle  17 NSaved=  17.
 NSaved=17 IEnMin=17 EnMin= -1463.03435450291     IErMin=17 ErrMin= 3.96D-06
 ErrMax= 3.96D-06  0.00D+00 EMaxC= 1.00D-01 BMatC= 2.31D-08 BMatP= 9.58D-08
 IDIUse=1 WtCom= 1.00D+00 WtEn= 0.00D+00
 Coeff-Com: -0.153D-03 0.209D-03-0.962D-03-0.217D-02-0.203D-02 0.425D-02
 Coeff-Com:  0.382D-01 0.938D-02-0.319D-01-0.718D-01 0.373D-01 0.438D-01
 Coeff-Com:  0.181D+00-0.228D+00-0.258D+00 0.434D+00 0.847D+00
 Coeff:     -0.153D-03 0.209D-03-0.962D-03-0.217D-02-0.203D-02 0.425D-02
 Coeff:      0.382D-01 0.938D-02-0.319D-01-0.718D-01 0.373D-01 0.438D-01
 Coeff:      0.181D+00-0.228D+00-0.258D+00 0.434D+00 0.847D+00
 Gap=     0.490 Goal=   None    Shift=    0.000
 Gap=     0.119 Goal=   None    Shift=    0.000
 RMSDP=2.08D-06 MaxDP=1.36D-04 DE=-1.35D-07 OVMax= 4.83D-04

 Cycle  18  Pass 1  IDiag  1:
 E= -1463.03435453714     Delta-E=       -0.000000034228 Rises=F Damp=F
 DIIS: error= 3.96D-06 at cycle  18 NSaved=  18.
 NSaved=18 IEnMin=18 EnMin= -1463.03435453714     IErMin=18 ErrMin= 3.96D-06
 ErrMax= 3.96D-06  0.00D+00 EMaxC= 1.00D-01 BMatC= 1.05D-08 BMatP= 2.31D-08
 IDIUse=1 WtCom= 1.00D+00 WtEn= 0.00D+00
 Coeff-Com:  0.470D-04-0.549D-04 0.100D-03 0.515D-04-0.350D-02-0.123D-01
 Coeff-Com:  0.712D-02 0.577D-01 0.127D+00-0.177D+00-0.118D+00 0.129D+00
 Coeff-Com:  0.133D+00-0.926D-01-0.262D+00 0.207D-01 0.253D+00 0.939D+00
 Coeff:      0.470D-04-0.549D-04 0.100D-03 0.515D-04-0.350D-02-0.123D-01
 Coeff:      0.712D-02 0.577D-01 0.127D+00-0.177D+00-0.118D+00 0.129D+00
 Coeff:      0.133D+00-0.926D-01-0.262D+00 0.207D-01 0.253D+00 0.939D+00
 Gap=     0.490 Goal=   None    Shift=    0.000
 Gap=     0.119 Goal=   None    Shift=    0.000
 RMSDP=1.48D-06 MaxDP=9.91D-05 DE=-3.42D-08 OVMax= 3.88D-04

 Cycle  19  Pass 1  IDiag  1:
 E= -1463.03435455079     Delta-E=       -0.000000013644 Rises=F Damp=F
 DIIS: error= 1.98D-06 at cycle  19 NSaved=  19.
 NSaved=19 IEnMin=19 EnMin= -1463.03435455079     IErMin=19 ErrMin= 1.98D-06
 ErrMax= 1.98D-06  0.00D+00 EMaxC= 1.00D-01 BMatC= 1.39D-08 BMatP= 1.05D-08
 IDIUse=1 WtCom= 1.00D+00 WtEn= 0.00D+00
 Coeff-Com:  0.698D-04-0.904D-04 0.480D-03 0.106D-02-0.893D-03-0.896D-02
 Coeff-Com: -0.163D-01 0.230D-01 0.110D+00-0.931D-01-0.839D-01 0.505D-01
 Coeff-Com:  0.546D-01-0.435D-02 0.440D-03-0.268D-01-0.417D+00 0.636D-01
 Coeff-Com:  0.135D+01
 Coeff:      0.698D-04-0.904D-04 0.480D-03 0.106D-02-0.893D-03-0.896D-02
 Coeff:     -0.163D-01 0.230D-01 0.110D+00-0.931D-01-0.839D-01 0.505D-01
 Coeff:      0.546D-01-0.435D-02 0.440D-03-0.268D-01-0.417D+00 0.636D-01
 Coeff:      0.135D+01
 Gap=     0.490 Goal=   None    Shift=    0.000
 Gap=     0.119 Goal=   None    Shift=    0.000
 RMSDP=1.79D-06 MaxDP=1.21D-04 DE=-1.36D-08 OVMax= 4.50D-04

 Cycle  20  Pass 1  IDiag  1:
 E= -1463.03435456488     Delta-E=       -0.000000014097 Rises=F Damp=F
 DIIS: error= 2.18D-06 at cycle  20 NSaved=  20.
 NSaved=20 IEnMin=20 EnMin= -1463.03435456488     IErMin=19 ErrMin= 1.98D-06
 ErrMax= 2.18D-06  0.00D+00 EMaxC= 1.00D-01 BMatC= 5.17D-09 BMatP= 1.05D-08
 IDIUse=1 WtCom= 1.00D+00 WtEn= 0.00D+00
 Coeff-Com:  0.250D-04-0.343D-04 0.214D-03 0.501D-03 0.612D-03-0.709D-03
 Coeff-Com: -0.105D-01-0.422D-02 0.236D-01 0.400D-02-0.108D-01-0.151D-01
 Coeff-Com: -0.138D-01 0.218D-01 0.452D-01 0.363D-01-0.244D+00-0.351D+00
 Coeff-Com:  0.670D+00 0.848D+00
 Coeff:      0.250D-04-0.343D-04 0.214D-03 0.501D-03 0.612D-03-0.709D-03
 Coeff:     -0.105D-01-0.422D-02 0.236D-01 0.400D-02-0.108D-01-0.151D-01
 Coeff:     -0.138D-01 0.218D-01 0.452D-01 0.363D-01-0.244D+00-0.351D+00
 Coeff:      0.670D+00 0.848D+00
 Gap=     0.490 Goal=   None    Shift=    0.000
 Gap=     0.119 Goal=   None    Shift=    0.000
 RMSDP=8.41D-07 MaxDP=3.81D-05 DE=-1.41D-08 OVMax= 1.57D-04

 Cycle  21  Pass 1  IDiag  1:
 E= -1463.03435456945     Delta-E=       -0.000000004566 Rises=F Damp=F
 DIIS: error= 8.87D-07 at cycle  21 NSaved=  20.
 NSaved=20 IEnMin=20 EnMin= -1463.03435456945     IErMin=20 ErrMin= 8.87D-07
 ErrMax= 8.87D-07  0.00D+00 EMaxC= 1.00D-01 BMatC= 6.34D-10 BMatP= 5.17D-09
 IDIUse=1 WtCom= 1.00D+00 WtEn= 0.00D+00
 Coeff-Com: -0.194D-05-0.382D-04-0.894D-04 0.533D-03 0.236D-02 0.142D-02
 Coeff-Com: -0.912D-02-0.256D-01 0.311D-01 0.193D-01-0.176D-01-0.196D-01
 Coeff-Com:  0.485D-02 0.813D-02 0.552D-01 0.545D-01-0.326D+00-0.151D+00
 Coeff-Com:  0.385D+00 0.987D+00
 Coeff:     -0.194D-05-0.382D-04-0.894D-04 0.533D-03 0.236D-02 0.142D-02
 Coeff:     -0.912D-02-0.256D-01 0.311D-01 0.193D-01-0.176D-01-0.196D-01
 Coeff:      0.485D-02 0.813D-02 0.552D-01 0.545D-01-0.326D+00-0.151D+00
 Coeff:      0.385D+00 0.987D+00
 Gap=     0.490 Goal=   None    Shift=    0.000
 Gap=     0.119 Goal=   None    Shift=    0.000
 RMSDP=4.73D-07 MaxDP=1.09D-05 DE=-4.57D-09 OVMax= 1.04D-04

 Cycle  22  Pass 1  IDiag  1:
 E= -1463.03435457061     Delta-E=       -0.000000001165 Rises=F Damp=F
 DIIS: error= 3.81D-07 at cycle  22 NSaved=  20.
 NSaved=20 IEnMin=20 EnMin= -1463.03435457061     IErMin=20 ErrMin= 3.81D-07
 ErrMax= 3.81D-07  0.00D+00 EMaxC= 1.00D-01 BMatC= 3.77D-10 BMatP= 6.34D-10
 IDIUse=1 WtCom= 1.00D+00 WtEn= 0.00D+00
 Coeff-Com: -0.324D-04-0.877D-04-0.394D-04 0.379D-03 0.217D-02-0.158D-02
 Coeff-Com: -0.368D-02-0.293D-03 0.534D-02-0.123D-03 0.603D-02-0.104D-01
 Coeff-Com: -0.669D-02 0.281D-01 0.581D-01-0.710D-01-0.144D+00 0.159D-01
 Coeff-Com:  0.169D+00 0.953D+00
 Coeff:     -0.324D-04-0.877D-04-0.394D-04 0.379D-03 0.217D-02-0.158D-02
 Coeff:     -0.368D-02-0.293D-03 0.534D-02-0.123D-03 0.603D-02-0.104D-01
 Coeff:     -0.669D-02 0.281D-01 0.581D-01-0.710D-01-0.144D+00 0.159D-01
 Coeff:      0.169D+00 0.953D+00
 Gap=     0.490 Goal=   None    Shift=    0.000
 Gap=     0.119 Goal=   None    Shift=    0.000
 RMSDP=1.09D-07 MaxDP=3.31D-06 DE=-1.16D-09 OVMax= 1.65D-05

 Cycle  23  Pass 1  IDiag  1:
 E= -1463.03435457089     Delta-E=       -0.000000000279 Rises=F Damp=F
 DIIS: error= 2.07D-07 at cycle  23 NSaved=  20.
 NSaved=20 IEnMin=20 EnMin= -1463.03435457089     IErMin=20 ErrMin= 2.07D-07
 ErrMax= 2.07D-07  0.00D+00 EMaxC= 1.00D-01 BMatC= 3.18D-11 BMatP= 3.77D-10
 IDIUse=1 WtCom= 1.00D+00 WtEn= 0.00D+00
 Coeff-Com: -0.494D-05-0.112D-03-0.400D-03-0.235D-04 0.115D-02 0.826D-02
 Coeff-Com: -0.927D-02-0.316D-02 0.260D-02 0.791D-02-0.506D-02-0.378D-02
 Coeff-Com: -0.329D-03-0.648D-02 0.606D-01 0.237D-01-0.825D-01-0.299D+00
 Coeff-Com:  0.368D+00 0.939D+00
 Coeff:     -0.494D-05-0.112D-03-0.400D-03-0.235D-04 0.115D-02 0.826D-02
 Coeff:     -0.927D-02-0.316D-02 0.260D-02 0.791D-02-0.506D-02-0.378D-02
 Coeff:     -0.329D-03-0.648D-02 0.606D-01 0.237D-01-0.825D-01-0.299D+00
 Coeff:      0.368D+00 0.939D+00
 Gap=     0.490 Goal=   None    Shift=    0.000
 Gap=     0.119 Goal=   None    Shift=    0.000
 RMSDP=7.98D-08 MaxDP=5.35D-06 DE=-2.79D-10 OVMax= 1.57D-05

 Cycle  24  Pass 1  IDiag  1:
 E= -1463.03435457084     Delta-E=        0.000000000049 Rises=F Damp=F
 DIIS: error= 1.28D-07 at cycle  24 NSaved=  20.
 NSaved=20 IEnMin=19 EnMin= -1463.03435457089     IErMin=20 ErrMin= 1.28D-07
 ErrMax= 1.28D-07  0.00D+00 EMaxC= 1.00D-01 BMatC= 1.95D-11 BMatP= 3.18D-11
 IDIUse=1 WtCom= 1.00D+00 WtEn= 0.00D+00
 Coeff-Com: -0.228D-04-0.108D-03 0.401D-04 0.690D-03-0.771D-03 0.329D-03
 Coeff-Com: -0.208D-02 0.205D-02 0.125D-02 0.180D-03-0.283D-02-0.322D-02
 Coeff-Com: -0.787D-02 0.235D-01 0.371D-01-0.340D-01-0.122D+00-0.826D-01
 Coeff-Com:  0.169D+00 0.102D+01
 Coeff:     -0.228D-04-0.108D-03 0.401D-04 0.690D-03-0.771D-03 0.329D-03
 Coeff:     -0.208D-02 0.205D-02 0.125D-02 0.180D-03-0.283D-02-0.322D-02
 Coeff:     -0.787D-02 0.235D-01 0.371D-01-0.340D-01-0.122D+00-0.826D-01
 Coeff:      0.169D+00 0.102D+01
 Gap=     0.490 Goal=   None    Shift=    0.000
 Gap=     0.119 Goal=   None    Shift=    0.000
 RMSDP=9.98D-08 MaxDP=7.12D-06 DE= 4.87D-11 OVMax= 3.03D-05

 Cycle  25  Pass 1  IDiag  1:
 E= -1463.03435457093     Delta-E=       -0.000000000087 Rises=F Damp=F
 DIIS: error= 8.03D-08 at cycle  25 NSaved=  20.
 NSaved=20 IEnMin=20 EnMin= -1463.03435457093     IErMin=20 ErrMin= 8.03D-08
 ErrMax= 8.03D-08  0.00D+00 EMaxC= 1.00D-01 BMatC= 2.01D-12 BMatP= 1.95D-11
 IDIUse=1 WtCom= 1.00D+00 WtEn= 0.00D+00
 Coeff-Com:  0.192D-04 0.708D-04 0.133D-03-0.177D-02 0.159D-02-0.143D-03
 Coeff-Com:  0.281D-03-0.108D-02 0.102D-02-0.321D-03 0.112D-02-0.222D-02
 Coeff-Com: -0.126D-01 0.969D-02 0.187D-01 0.313D-01-0.119D+00-0.210D+00
 Coeff-Com:  0.218D+00 0.107D+01
 Coeff:      0.192D-04 0.708D-04 0.133D-03-0.177D-02 0.159D-02-0.143D-03
 Coeff:      0.281D-03-0.108D-02 0.102D-02-0.321D-03 0.112D-02-0.222D-02
 Coeff:     -0.126D-01 0.969D-02 0.187D-01 0.313D-01-0.119D+00-0.210D+00
 Coeff:      0.218D+00 0.107D+01
 Gap=     0.490 Goal=   None    Shift=    0.000
 Gap=     0.119 Goal=   None    Shift=    0.000
 RMSDP=3.38D-08 MaxDP=1.69D-06 DE=-8.69D-11 OVMax= 8.80D-06

 Cycle  26  Pass 1  IDiag  1:
 E= -1463.03435457093     Delta-E=        0.000000000005 Rises=F Damp=F
 DIIS: error= 3.67D-08 at cycle  26 NSaved=  20.
 NSaved=20 IEnMin=19 EnMin= -1463.03435457093     IErMin=20 ErrMin= 3.67D-08
 ErrMax= 3.67D-08  0.00D+00 EMaxC= 1.00D-01 BMatC= 9.35D-13 BMatP= 2.01D-12
 IDIUse=1 WtCom= 1.00D+00 WtEn= 0.00D+00
 Coeff-Com: -0.435D-04-0.423D-04-0.227D-03 0.309D-03 0.334D-03-0.432D-03
 Coeff-Com: -0.658D-03 0.432D-03 0.562D-03 0.166D-02-0.115D-02-0.118D-01
 Coeff-Com: -0.126D-02 0.217D-01 0.407D-01-0.451D-01-0.143D+00-0.195D+00
 Coeff-Com:  0.518D+00 0.814D+00
 Coeff:     -0.435D-04-0.423D-04-0.227D-03 0.309D-03 0.334D-03-0.432D-03
 Coeff:     -0.658D-03 0.432D-03 0.562D-03 0.166D-02-0.115D-02-0.118D-01
 Coeff:     -0.126D-02 0.217D-01 0.407D-01-0.451D-01-0.143D+00-0.195D+00
 Coeff:      0.518D+00 0.814D+00
 Gap=     0.490 Goal=   None    Shift=    0.000
 Gap=     0.119 Goal=   None    Shift=    0.000
 RMSDP=2.34D-08 MaxDP=2.00D-06 DE= 4.55D-12 OVMax= 6.24D-06

 Cycle  27  Pass 1  IDiag  1:
 E= -1463.03435457090     Delta-E=        0.000000000029 Rises=F Damp=F
 DIIS: error= 1.99D-08 at cycle  27 NSaved=  20.
 NSaved=20 IEnMin=18 EnMin= -1463.03435457093     IErMin=20 ErrMin= 1.99D-08
 ErrMax= 1.99D-08  0.00D+00 EMaxC= 1.00D-01 BMatC= 7.29D-13 BMatP= 9.35D-13
 IDIUse=1 WtCom= 1.00D+00 WtEn= 0.00D+00
 Coeff-Com: -0.532D-04-0.218D-04 0.451D-04 0.255D-03-0.281D-03-0.173D-03
 Coeff-Com:  0.490D-04 0.248D-03 0.587D-03-0.212D-03-0.277D-02-0.570D-03
 Coeff-Com:  0.289D-02 0.750D-02 0.105D-01-0.124D-01-0.120D+00-0.218D-01
 Coeff-Com:  0.239D+00 0.897D+00
 Coeff:     -0.532D-04-0.218D-04 0.451D-04 0.255D-03-0.281D-03-0.173D-03
 Coeff:      0.490D-04 0.248D-03 0.587D-03-0.212D-03-0.277D-02-0.570D-03
 Coeff:      0.289D-02 0.750D-02 0.105D-01-0.124D-01-0.120D+00-0.218D-01
 Coeff:      0.239D+00 0.897D+00
 Gap=     0.490 Goal=   None    Shift=    0.000
 Gap=     0.119 Goal=   None    Shift=    0.000
 RMSDP=7.18D-09 MaxDP=4.88D-07 DE= 2.86D-11 OVMax= 1.23D-06

 Error on total polarization charges =  0.00068
 SCF Done:  E(UCAM-B3LYP) =  -1463.03435457     A.U. after   27 cycles
            NFock= 27  Conv=0.72D-08     -V/T= 2.0072
 <Sx>= 0.0000 <Sy>= 0.0000 <Sz>= 0.5000 <S**2>= 0.7532 S= 0.5016
 <L.S>= 0.000000000000E+00
 KE= 1.452584172927D+03 PE=-7.060214698619D+03 EE= 2.335361359022D+03
 Annihilation of the first spin contaminant:
 S**2 before annihilation     0.7532,   after     0.7500
 Leave Link  502 at Sun Feb  2 05:49:14 2025, MaxMem=  5368709120 cpu:       347.1
 (Enter /home/k0335/k033513/app/g09/l601.exe)
 Copying SCF densities to generalized density rwf, IOpCl= 1 IROHF=0.

 **********************************************************************

            Population analysis using the SCF density.

 **********************************************************************

 Alpha  occ. eigenvalues --  -24.95458 -24.95302 -24.94953 -24.94590 -24.93115
 Alpha  occ. eigenvalues --  -24.92911 -24.92000 -24.91523 -24.90767 -24.89827
 Alpha  occ. eigenvalues --  -24.88496 -24.88491 -19.44170 -10.66023 -10.65277
 Alpha  occ. eigenvalues --  -10.64774 -10.63389 -10.62729  -1.51865  -1.50368
 Alpha  occ. eigenvalues --   -1.49317  -1.48073  -1.47227  -1.43305  -1.42754
 Alpha  occ. eigenvalues --   -1.42166  -1.40733  -1.39962  -1.38983  -1.37899
 Alpha  occ. eigenvalues --   -1.31284  -1.07191  -0.98750  -0.92520  -0.87677
 Alpha  occ. eigenvalues --   -0.84224  -0.82306  -0.81224  -0.80658  -0.79247
 Alpha  occ. eigenvalues --   -0.77921  -0.77563  -0.75835  -0.75304  -0.74874
 Alpha  occ. eigenvalues --   -0.74292  -0.73886  -0.69518  -0.68053  -0.66432
 Alpha  occ. eigenvalues --   -0.66225  -0.65499  -0.64730  -0.64446  -0.63390
 Alpha  occ. eigenvalues --   -0.63237  -0.63017  -0.61946  -0.61784  -0.61297
 Alpha  occ. eigenvalues --   -0.61091  -0.60118  -0.59936  -0.59397  -0.59056
 Alpha  occ. eigenvalues --   -0.58411  -0.57885  -0.57396  -0.57047  -0.56478
 Alpha  occ. eigenvalues --   -0.55548  -0.54991  -0.54586
 Alpha virt. eigenvalues --   -0.05581  -0.04439   0.03376   0.03991   0.10039
 Alpha virt. eigenvalues --    0.11831   0.12738   0.14338   0.15342   0.16149
 Alpha virt. eigenvalues --    0.17438   0.18339   0.18725   0.19407   0.22166
 Alpha virt. eigenvalues --    0.23130   0.23329   0.39566   0.42519   0.42762
 Alpha virt. eigenvalues --    0.44467   0.45740   0.46893   0.47690   0.48540
 Alpha virt. eigenvalues --    0.49777   0.52396   0.54668   0.55277   0.56646
 Alpha virt. eigenvalues --    0.64023   0.64176   0.66617   0.80057   0.82602
 Alpha virt. eigenvalues --    0.84401   0.87299   0.91104   0.94236   0.94829
 Alpha virt. eigenvalues --    1.00049   1.01675   1.02275   1.04336   1.05376
 Alpha virt. eigenvalues --    1.06461   1.06695   1.07692   1.08499   1.10900
 Alpha virt. eigenvalues --    1.13449   1.13838   1.16185   1.18390   1.19948
 Alpha virt. eigenvalues --    1.22335   1.22725   1.24102   1.25989   1.26675
 Alpha virt. eigenvalues --    1.27405   1.28044   1.29533   1.30260   1.30821
 Alpha virt. eigenvalues --    1.31082   1.32412   1.32694   1.32991   1.33819
 Alpha virt. eigenvalues --    1.34653   1.35455   1.36330   1.36363   1.37091
 Alpha virt. eigenvalues --    1.38636   1.38933   1.39985   1.42228   1.42726
 Alpha virt. eigenvalues --    1.43749   1.46772   1.49884   1.51057   1.52273
 Alpha virt. eigenvalues --    1.56485   1.57606   1.59347   1.61908   1.62883
 Alpha virt. eigenvalues --    1.63651   1.65159   1.65578   1.68432   1.69606
 Alpha virt. eigenvalues --    1.72536   1.73142   1.74340   1.75472   1.77001
 Alpha virt. eigenvalues --    1.77423   1.79296   1.79380   1.80260   1.81764
 Alpha virt. eigenvalues --    1.82856   1.84315   1.84768   1.85473   1.86094
 Alpha virt. eigenvalues --    1.86796   1.88139   1.89471   1.90885   1.90968
 Alpha virt. eigenvalues --    1.92989   1.94908   1.95422   1.96400   1.96692
 Alpha virt. eigenvalues --    1.97308   1.97708   1.98082   1.98652   1.99217
 Alpha virt. eigenvalues --    2.00596   2.00915   2.04338   2.04658   2.05223
 Alpha virt. eigenvalues --    2.07466   2.08097   2.10323   2.13436   2.14665
 Alpha virt. eigenvalues --    2.17255   2.19489   2.22967   2.25899   2.30230
 Alpha virt. eigenvalues --    2.30948   2.32140   2.33814   2.34995   2.35978
 Alpha virt. eigenvalues --    2.39648   2.40130   2.42729   2.46455   2.48495
 Alpha virt. eigenvalues --    2.51132   2.54700   2.55930   2.61558   2.62779
 Alpha virt. eigenvalues --    2.66568   2.70125   2.74735   2.75480   2.77770
 Alpha virt. eigenvalues --    2.80250   2.81372   2.83671   2.84592   2.86949
 Alpha virt. eigenvalues --    2.90294   2.96121   2.98342   2.99948   3.00543
 Alpha virt. eigenvalues --    3.01320   3.02224   3.06176   3.08119   3.11659
 Alpha virt. eigenvalues --    3.14177   3.14651   3.18569   3.21134   3.99553
 Alpha virt. eigenvalues --    4.09427   4.19862   4.30559   4.36155   4.38892
 Alpha virt. eigenvalues --    4.46369   4.65785   4.73787   4.83339   4.96550
 Alpha virt. eigenvalues --    5.13220   5.27509   5.43419   5.74069   5.81475
 Alpha virt. eigenvalues --    6.19610   6.45419
  Beta  occ. eigenvalues --  -24.95147 -24.94972 -24.94664 -24.94292 -24.92943
  Beta  occ. eigenvalues --  -24.92765 -24.91856 -24.91433 -24.90649 -24.89757
  Beta  occ. eigenvalues --  -24.88466 -24.88457 -19.43707 -10.66038 -10.65179
  Beta  occ. eigenvalues --  -10.64679 -10.63154 -10.62508  -1.51349  -1.50022
  Beta  occ. eigenvalues --   -1.48910  -1.47548  -1.46956  -1.42637  -1.42070
  Beta  occ. eigenvalues --   -1.41762  -1.40418  -1.39672  -1.38853  -1.37815
  Beta  occ. eigenvalues --   -1.30318  -1.06035  -0.97695  -0.91324  -0.86815
  Beta  occ. eigenvalues --   -0.83902  -0.81617  -0.80788  -0.80286  -0.78915
  Beta  occ. eigenvalues --   -0.77624  -0.77024  -0.75503  -0.74936  -0.74576
  Beta  occ. eigenvalues --   -0.74028  -0.73578  -0.69076  -0.67449  -0.65457
  Beta  occ. eigenvalues --   -0.64655  -0.63750  -0.63518  -0.62893  -0.62544
  Beta  occ. eigenvalues --   -0.62311  -0.61698  -0.61583  -0.61245  -0.60876
  Beta  occ. eigenvalues --   -0.60272  -0.59603  -0.59141  -0.58963  -0.58601
  Beta  occ. eigenvalues --   -0.57907  -0.57366  -0.56845  -0.56618  -0.55072
  Beta  occ. eigenvalues --   -0.54805  -0.51727
  Beta virt. eigenvalues --   -0.39836  -0.05121  -0.03846   0.04071   0.04468
  Beta virt. eigenvalues --    0.10677   0.12187   0.13108   0.14669   0.15847
  Beta virt. eigenvalues --    0.16571   0.17709   0.18435   0.19207   0.19828
  Beta virt. eigenvalues --    0.22517   0.23491   0.24297   0.39751   0.42644
  Beta virt. eigenvalues --    0.42981   0.44718   0.45890   0.47021   0.47857
  Beta virt. eigenvalues --    0.48668   0.49910   0.52621   0.55035   0.55579
  Beta virt. eigenvalues --    0.56940   0.64425   0.64538   0.66983   0.80318
  Beta virt. eigenvalues --    0.82876   0.84752   0.87629   0.91294   0.94648
  Beta virt. eigenvalues --    0.95243   1.00285   1.01859   1.02511   1.04511
  Beta virt. eigenvalues --    1.05536   1.06674   1.06837   1.07821   1.08669
  Beta virt. eigenvalues --    1.11020   1.13631   1.14068   1.16277   1.18650
  Beta virt. eigenvalues --    1.20149   1.22736   1.23132   1.24504   1.26311
  Beta virt. eigenvalues --    1.27059   1.27665   1.28472   1.29882   1.30454
  Beta virt. eigenvalues --    1.31044   1.31378   1.32511   1.32880   1.33215
  Beta virt. eigenvalues --    1.34084   1.34859   1.35875   1.36452   1.36514
  Beta virt. eigenvalues --    1.37232   1.38844   1.39172   1.40322   1.42449
  Beta virt. eigenvalues --    1.43029   1.44051   1.46962   1.50089   1.51314
  Beta virt. eigenvalues --    1.52458   1.56734   1.57866   1.59760   1.62285
  Beta virt. eigenvalues --    1.63161   1.64089   1.65378   1.65840   1.68675
  Beta virt. eigenvalues --    1.69877   1.72856   1.73436   1.74687   1.75924
  Beta virt. eigenvalues --    1.77268   1.77714   1.79493   1.79620   1.80522
  Beta virt. eigenvalues --    1.82043   1.83041   1.84695   1.84979   1.85840
  Beta virt. eigenvalues --    1.86230   1.87179   1.88523   1.89849   1.91170
  Beta virt. eigenvalues --    1.91366   1.93269   1.95175   1.95697   1.96572
  Beta virt. eigenvalues --    1.96843   1.97459   1.97892   1.98257   1.98836
  Beta virt. eigenvalues --    1.99472   2.00789   2.01197   2.04417   2.04720
  Beta virt. eigenvalues --    2.05541   2.07701   2.08388   2.10599   2.13558
  Beta virt. eigenvalues --    2.14934   2.17635   2.19871   2.23259   2.26188
  Beta virt. eigenvalues --    2.30508   2.31243   2.32459   2.34058   2.35264
  Beta virt. eigenvalues --    2.36372   2.39932   2.40465   2.43071   2.46703
  Beta virt. eigenvalues --    2.48782   2.51510   2.54930   2.56344   2.61923
  Beta virt. eigenvalues --    2.63128   2.66933   2.70397   2.74962   2.75657
  Beta virt. eigenvalues --    2.78037   2.80480   2.81662   2.83874   2.84935
  Beta virt. eigenvalues --    2.87217   2.90532   2.96300   2.98569   3.00178
  Beta virt. eigenvalues --    3.00606   3.01564   3.02436   3.06443   3.08297
  Beta virt. eigenvalues --    3.11879   3.14380   3.14862   3.18707   3.21398
  Beta virt. eigenvalues --    4.00002   4.09831   4.20122   4.30751   4.36268
  Beta virt. eigenvalues --    4.39086   4.46518   4.66027   4.74033   4.83436
  Beta virt. eigenvalues --    4.96685   5.13343   5.27680   5.43620   5.74265
  Beta virt. eigenvalues --    5.81621   6.19711   6.45537
          Condensed to atoms (all electrons):
               1          2          3          4          5          6
     1  F    9.015504   0.322103  -0.034407  -0.038595  -0.040997  -0.003034
     2  C    0.322103   3.807730   0.301377   0.344481   0.186228   0.007340
     3  F   -0.034407   0.301377   9.010078  -0.037455  -0.039489   0.016926
     4  F   -0.038595   0.344481  -0.037455   8.980031  -0.035091  -0.000341
     5  O   -0.040997   0.186228  -0.039489  -0.035091   8.332467   0.151784
     6  C   -0.003034   0.007340   0.016926  -0.000341   0.151784   4.423350
     7  F   -0.000017  -0.001817  -0.003197  -0.000016  -0.045600   0.272200
     8  F   -0.002567   0.010689  -0.002613  -0.000009  -0.045801   0.268350
     9  C   -0.000406  -0.001387   0.000335  -0.000047  -0.029102   0.139567
    10  F    0.000004  -0.000075   0.000000   0.000000  -0.000053  -0.021284
    11  F    0.000000   0.000017   0.000000   0.000000   0.000550  -0.015284
    12  C    0.000001  -0.000097  -0.000006   0.000000  -0.002237  -0.038411
    13  F    0.000000   0.000000   0.000000   0.000000   0.000001   0.001814
    14  F    0.000000   0.000002   0.000000   0.000000  -0.000012  -0.001366
    15  C    0.000002   0.000134   0.000007  -0.000010   0.005653  -0.008540
    16  F    0.000000   0.000047   0.000000   0.000000   0.000644  -0.002816
    17  F    0.000000   0.001192  -0.000017  -0.000021  -0.010035   0.019312
    18  F    0.000000   0.000000   0.000000   0.000000  -0.000001   0.000003
               7          8          9         10         11         12
     1  F   -0.000017  -0.002567  -0.000406   0.000004   0.000000   0.000001
     2  C   -0.001817   0.010689  -0.001387  -0.000075   0.000017  -0.000097
     3  F   -0.003197  -0.002613   0.000335   0.000000   0.000000  -0.000006
     4  F   -0.000016  -0.000009  -0.000047   0.000000   0.000000   0.000000
     5  O   -0.045600  -0.045801  -0.029102  -0.000053   0.000550  -0.002237
     6  C    0.272200   0.268350   0.139567  -0.021284  -0.015284  -0.038411
     7  F    9.031115  -0.037118  -0.034132   0.000280  -0.000556   0.007840
     8  F   -0.037118   9.016568  -0.010801  -0.001116  -0.002453   0.001784
     9  C   -0.034132  -0.010801   4.894152   0.249456   0.249098   0.071261
    10  F    0.000280  -0.001116   0.249456   8.989778  -0.038946  -0.019911
    11  F   -0.000556  -0.002453   0.249098  -0.038946   8.985614  -0.007848
    12  C    0.007840   0.001784   0.071261  -0.019911  -0.007848   4.893522
    13  F    0.000004  -0.000001  -0.008358  -0.001847  -0.002829   0.245279
    14  F    0.001168   0.000001  -0.017830   0.000266  -0.001904   0.243241
    15  C   -0.002000  -0.000027  -0.035795   0.000124   0.001422   0.162774
    16  F    0.000002   0.000000   0.008077   0.000898   0.000003  -0.033775
    17  F   -0.000884   0.000001  -0.008570   0.000008   0.000002  -0.025807
    18  F    0.000000   0.000000   0.001825   0.000002  -0.000001  -0.012863
              13         14         15         16         17         18
     1  F    0.000000   0.000000   0.000002   0.000000   0.000000   0.000000
     2  C    0.000000   0.000002   0.000134   0.000047   0.001192   0.000000
     3  F    0.000000   0.000000   0.000007   0.000000  -0.000017   0.000000
     4  F    0.000000   0.000000  -0.000010   0.000000  -0.000021   0.000000
     5  O    0.000001  -0.000012   0.005653   0.000644  -0.010035  -0.000001
     6  C    0.001814  -0.001366  -0.008540  -0.002816   0.019312   0.000003
     7  F    0.000004   0.001168  -0.002000   0.000002  -0.000884   0.000000
     8  F   -0.000001   0.000001  -0.000027   0.000000   0.000001   0.000000
     9  C   -0.008358  -0.017830  -0.035795   0.008077  -0.008570   0.001825
    10  F   -0.001847   0.000266   0.000124   0.000898   0.000008   0.000002
    11  F   -0.002829  -0.001904   0.001422   0.000003   0.000002  -0.000001
    12  C    0.245279   0.243241   0.162774  -0.033775  -0.025807  -0.012863
    13  F    8.990136  -0.039010  -0.016482  -0.000493   0.000286  -0.001507
    14  F   -0.039010   8.991040  -0.014943   0.000283  -0.000494  -0.001511
    15  C   -0.016482  -0.014943   4.219183   0.288947   0.272318   0.301606
    16  F   -0.000493   0.000283   0.288947   9.010576  -0.037606  -0.039018
    17  F    0.000286  -0.000494   0.272318  -0.037606   9.022837  -0.040068
    18  F   -0.001507  -0.001511   0.301606  -0.039018  -0.040068   8.985790
          Atomic-Atomic Spin Densities.
               1          2          3          4          5          6
     1  F    0.007714   0.000756   0.000023  -0.000099  -0.000928   0.000353
     2  C    0.000756  -0.008303  -0.000779  -0.000496  -0.000041  -0.000339
     3  F    0.000023  -0.000779   0.021848   0.000259  -0.001270  -0.000031
     4  F   -0.000099  -0.000496   0.000259   0.012922  -0.001468  -0.000051
     5  O   -0.000928  -0.000041  -0.001270  -0.001468   0.185986  -0.011997
     6  C    0.000353  -0.000339  -0.000031  -0.000051  -0.011997   0.034139
     7  F    0.000001   0.000335  -0.000741  -0.000001   0.000390  -0.012627
     8  F    0.000131  -0.000318  -0.000203  -0.000004  -0.000276  -0.004020
     9  C   -0.000010   0.000104   0.000017   0.000002  -0.000428   0.031524
    10  F   -0.000002   0.000028   0.000000   0.000000   0.001452  -0.002142
    11  F    0.000000   0.000001   0.000000   0.000000   0.000033  -0.002326
    12  C   -0.000001   0.000028   0.000004   0.000000   0.000008  -0.002831
    13  F    0.000000   0.000000   0.000000   0.000000  -0.000002   0.000119
    14  F    0.000000   0.000000   0.000000   0.000000   0.000001   0.001642
    15  C    0.000000  -0.000020  -0.000004  -0.000004   0.000138   0.002857
    16  F    0.000000   0.000002   0.000000   0.000000   0.000142  -0.000343
    17  F    0.000000   0.000001   0.000005   0.000004  -0.001914  -0.002592
    18  F    0.000000   0.000000   0.000000   0.000000  -0.000002  -0.000035
               7          8          9         10         11         12
     1  F    0.000001   0.000131  -0.000010  -0.000002   0.000000  -0.000001
     2  C    0.000335  -0.000318   0.000104   0.000028   0.000001   0.000028
     3  F   -0.000741  -0.000203   0.000017   0.000000   0.000000   0.000004
     4  F   -0.000001  -0.000004   0.000002   0.000000   0.000000   0.000000
     5  O    0.000390  -0.000276  -0.000428   0.001452   0.000033   0.000008
     6  C   -0.012627  -0.004020   0.031524  -0.002142  -0.002326  -0.002831
     7  F    0.058628   0.000975   0.002153   0.000011   0.000179   0.001423
     8  F    0.000975   0.048324  -0.002347   0.000461   0.001551   0.000069
     9  C    0.002153  -0.002347   0.040653  -0.014338  -0.014294   0.056227
    10  F    0.000011   0.000461  -0.014338   0.105051   0.001557  -0.002254
    11  F    0.000179   0.001551  -0.014294   0.001557   0.099891  -0.003813
    12  C    0.001423   0.000069   0.056227  -0.002254  -0.003813   0.040448
    13  F   -0.000003   0.000000  -0.004314   0.001060   0.001915  -0.012958
    14  F   -0.001106  -0.000003  -0.002815   0.000012   0.001120  -0.014546
    15  C   -0.000565  -0.000005  -0.001368   0.001100   0.000104   0.021220
    16  F    0.000002   0.000000   0.000576  -0.000794  -0.000002   0.001296
    17  F    0.000519   0.000000   0.000746  -0.000015  -0.000001   0.001987
    18  F    0.000001   0.000000   0.000115  -0.000003   0.000000  -0.001274
              13         14         15         16         17         18
     1  F    0.000000   0.000000   0.000000   0.000000   0.000000   0.000000
     2  C    0.000000   0.000000  -0.000020   0.000002   0.000001   0.000000
     3  F    0.000000   0.000000  -0.000004   0.000000   0.000005   0.000000
     4  F    0.000000   0.000000  -0.000004   0.000000   0.000004   0.000000
     5  O   -0.000002   0.000001   0.000138   0.000142  -0.001914  -0.000002
     6  C    0.000119   0.001642   0.002857  -0.000343  -0.002592  -0.000035
     7  F   -0.000003  -0.001106  -0.000565   0.000002   0.000519   0.000001
     8  F    0.000000  -0.000003  -0.000005   0.000000   0.000000   0.000000
     9  C   -0.004314  -0.002815  -0.001368   0.000576   0.000746   0.000115
    10  F    0.001060   0.000012   0.001100  -0.000794  -0.000015  -0.000003
    11  F    0.001915   0.001120   0.000104  -0.000002  -0.000001   0.000000
    12  C   -0.012958  -0.014546   0.021220   0.001296   0.001987  -0.001274
    13  F    0.101787   0.001644  -0.002457   0.000200   0.000006   0.000939
    14  F    0.001644   0.111121  -0.002620   0.000004   0.000274   0.000776
    15  C   -0.002457  -0.002620   0.046954  -0.006836  -0.010793  -0.009988
    16  F    0.000200   0.000004  -0.006836   0.030160   0.000691   0.000696
    17  F    0.000006   0.000274  -0.010793   0.000691   0.051085   0.000613
    18  F    0.000939   0.000776  -0.009988   0.000696   0.000613   0.042127
 Mulliken charges and spin densities:
               1          2
     1  F   -0.217591   0.007938
     2  C    1.022034  -0.009040
     3  F   -0.211537   0.019127
     4  F   -0.212928   0.011066
     5  O   -0.428910   0.169826
     6  C    0.790431   0.031302
     7  F   -0.187273   0.049576
     8  F   -0.194887   0.044337
     9  C    0.532658   0.092203
    10  F   -0.157584   0.091184
    11  F   -0.166886   0.085916
    12  C    0.515252   0.085034
    13  F   -0.166994   0.087937
    14  F   -0.158933   0.095503
    15  C    0.825627   0.037714
    16  F   -0.195770   0.025794
    17  F   -0.192452   0.040618
    18  F   -0.194258   0.033965
 Sum of Mulliken charges =   1.00000   1.00000
 Mulliken charges and spin densities with hydrogens summed into heavy atoms:
               1          2
     1  F   -0.217591   0.007938
     2  C    1.022034  -0.009040
     3  F   -0.211537   0.019127
     4  F   -0.212928   0.011066
     5  O   -0.428910   0.169826
     6  C    0.790431   0.031302
     7  F   -0.187273   0.049576
     8  F   -0.194887   0.044337
     9  C    0.532658   0.092203
    10  F   -0.157584   0.091184
    11  F   -0.166886   0.085916
    12  C    0.515252   0.085034
    13  F   -0.166994   0.087937
    14  F   -0.158933   0.095503
    15  C    0.825627   0.037714
    16  F   -0.195770   0.025794
    17  F   -0.192452   0.040618
    18  F   -0.194258   0.033965
 Electronic spatial extent (au):  <R**2>=           3515.3472
 Charge=              1.0000 electrons
 Dipole moment (field-independent basis, Debye):
    X=              1.9097    Y=             -1.9947    Z=              0.0969  Tot=              2.7632
 Quadrupole moment (field-independent basis, Debye-Ang):
   XX=            -75.0881   YY=            -82.1495   ZZ=            -85.5832
   XY=             -3.1274   XZ=             -0.9512   YZ=             -1.1317
 Traceless Quadrupole moment (field-independent basis, Debye-Ang):
   XX=              5.8522   YY=             -1.2092   ZZ=             -4.6430
   XY=             -3.1274   XZ=             -0.9512   YZ=             -1.1317
 Octapole moment (field-independent basis, Debye-Ang**2):
  XXX=              7.3272  YYY=             -6.6787  ZZZ=             12.2709  XYY=              2.2010
  XXY=              1.2379  XXZ=              0.8621  XZZ=              2.5690  YZZ=             -2.1928
  YYZ=              4.5121  XYZ=             -0.1302
 Hexadecapole moment (field-independent basis, Debye-Ang**3):
 XXXX=          -1865.5057 YYYY=           -862.8492 ZZZZ=           -446.2404 XXXY=            155.4519
 XXXZ=             65.3757 YYYX=            169.4021 YYYZ=             43.2495 ZZZX=             65.8959
 ZZZY=             46.8366 XXYY=           -452.8239 XXZZ=           -393.6300 YYZZ=           -218.6192
 XXYZ=             12.8072 YYXZ=             21.0714 ZZXY=             56.6535
 N-N= 1.809234812099D+03 E-N=-7.060214700134D+03  KE= 1.452584172927D+03
                          Isotropic Fermi Contact Couplings
        Atom                 a.u.       MegaHertz       Gauss      10(-4) cm-1
     1  F(19)             -0.00223      -9.40167      -3.35475      -3.13606
     2  C(13)             -0.00460      -5.17414      -1.84626      -1.72591
     3  F(19)              0.00186       7.84546       2.79945       2.61696
     4  F(19)              0.00032       1.33080       0.47486       0.44391
     5  O(17)              0.02458     -14.89746      -5.31578      -4.96926
     6  C(13)              0.01887      21.21338       7.56946       7.07602
     7  F(19)              0.00036       1.52856       0.54543       0.50987
     8  F(19)             -0.00061      -2.55500      -0.91169      -0.85226
     9  C(13)             -0.02798     -31.44991     -11.22211     -10.49056
    10  F(19)              0.01166      49.04022      17.49877      16.35806
    11  F(19)              0.01000      42.08684      15.01763      14.03866
    12  C(13)             -0.02164     -24.32815      -8.68089      -8.11500
    13  F(19)              0.00972      40.91112      14.59810      13.64648
    14  F(19)              0.01243      52.28168      18.65540      17.43929
    15  C(13)              0.02476      27.83815       9.93334       9.28581
    16  F(19)              0.00226       9.51641       3.39569       3.17433
    17  F(19)              0.00900      37.86561      13.51139      12.63061
    18  F(19)             -0.00012      -0.51652      -0.18431      -0.17229
 --------------------------------------------------------
       Center         ----  Spin Dipole Couplings  ----
                      3XX-RR        3YY-RR        3ZZ-RR
 --------------------------------------------------------
     1   Atom        0.050718     -0.021495     -0.029222
     2   Atom        0.012130     -0.004567     -0.007562
     3   Atom        0.127301     -0.055963     -0.071338
     4   Atom        0.025784      0.012373     -0.038157
     5   Atom       -0.348023     -0.223543      0.571567
     6   Atom        0.067136     -0.023046     -0.044090
     7   Atom        0.243447     -0.182484     -0.060963
     8   Atom        0.111555      0.040901     -0.152456
     9   Atom        0.252226     -0.132459     -0.119767
    10   Atom        0.581073     -0.306504     -0.274569
    11   Atom        0.571998     -0.289311     -0.282687
    12   Atom        0.028215      0.008615     -0.036830
    13   Atom        0.179835      0.007273     -0.187108
    14   Atom        0.170052     -0.011664     -0.158388
    15   Atom       -0.043359      0.087428     -0.044069
    16   Atom       -0.095333      0.189861     -0.094528
    17   Atom       -0.084345      0.142344     -0.057999
    18   Atom        0.001353      0.116601     -0.117953
 --------------------------------------------------------
                        XY            XZ            YZ
 --------------------------------------------------------
     1   Atom        0.024944      0.016161      0.004634
     2   Atom       -0.006730      0.001782     -0.000380
     3   Atom       -0.061914     -0.000342     -0.001102
     4   Atom       -0.061295     -0.018915      0.016708
     5   Atom        0.008681     -0.023982     -0.352176
     6   Atom       -0.052029      0.045362     -0.023943
     7   Atom        0.006590      0.235964     -0.002962
     8   Atom       -0.254159      0.017008     -0.019019
     9   Atom       -0.019105     -0.079474      0.010433
    10   Atom        0.105560     -0.200628     -0.020037
    11   Atom        0.083959     -0.119258     -0.010868
    12   Atom        0.147503     -0.111309     -0.108307
    13   Atom        0.393969     -0.241082     -0.194286
    14   Atom        0.406406     -0.296540     -0.236018
    15   Atom        0.018788     -0.000249     -0.014481
    16   Atom        0.008652     -0.002092     -0.039579
    17   Atom        0.140323     -0.078168     -0.160418
    18   Atom        0.177781     -0.027511     -0.044246
 --------------------------------------------------------


 ---------------------------------------------------------------------------------
              Anisotropic Spin Dipole Couplings in Principal Axis System
 ---------------------------------------------------------------------------------

       Atom             a.u.   MegaHertz   Gauss  10(-4) cm-1        Axes

              Baa    -0.0324   -16.262    -5.803    -5.424 -0.2085  0.0623  0.9760
     1 F(19)  Bbb    -0.0292   -14.678    -5.238    -4.896 -0.2736  0.9544 -0.1194
              Bcc     0.0616    30.940    11.040    10.321  0.9390  0.2920  0.1820
 
              Baa    -0.0078    -1.043    -0.372    -0.348 -0.1634 -0.2292  0.9596
     2 C(13)  Bbb    -0.0069    -0.923    -0.329    -0.308  0.2989  0.9154  0.2695
              Bcc     0.0147     1.966     0.702     0.656  0.9402 -0.3308  0.0811
 
              Baa    -0.0753   -37.797   -13.487   -12.608  0.2809  0.9173  0.2823
     3 F(19)  Bbb    -0.0710   -35.657   -12.723   -11.894 -0.0826 -0.2700  0.9593
              Bcc     0.1463    73.454    26.210    24.502  0.9562 -0.2928  0.0000
 
              Baa    -0.0433   -21.764    -7.766    -7.260  0.3011  0.0456  0.9525
     4 F(19)  Bbb    -0.0425   -21.364    -7.623    -7.126  0.6138  0.7552 -0.2302
              Bcc     0.0859    43.128    15.389    14.386  0.7298 -0.6539 -0.1994
 
              Baa    -0.3571    25.841     9.221     8.620  0.0456  0.9337  0.3552
     5 O(17)  Bbb    -0.3486    25.226     9.001     8.415  0.9987 -0.0512  0.0064
              Bcc     0.7057   -51.067   -18.222   -17.034 -0.0242 -0.3545  0.9348
 
              Baa    -0.0618    -8.297    -2.961    -2.768 -0.2087  0.2956  0.9323
     6 C(13)  Bbb    -0.0463    -6.212    -2.217    -2.072  0.4664  0.8679 -0.1708
              Bcc     0.1081    14.510     5.177     4.840  0.8596 -0.3992  0.3190
 
              Baa    -0.1928   -96.819   -34.547   -32.295 -0.4207  0.4891  0.7641
     7 F(19)  Bbb    -0.1793   -90.045   -32.130   -30.036  0.2280  0.8722 -0.4328
              Bcc     0.3721   186.863    66.678    62.331  0.8781  0.0079  0.4784
 
              Baa    -0.1807   -90.776   -32.391   -30.280  0.6478  0.7528  0.1167
     8 F(19)  Bbb    -0.1534   -77.041   -27.490   -25.698 -0.1157 -0.0542  0.9918
              Bcc     0.3341   167.817    59.881    55.978  0.7530 -0.6560  0.0520
 
              Baa    -0.1413   -18.960    -6.765    -6.324  0.1232 -0.6348  0.7628
     9 C(13)  Bbb    -0.1283   -17.214    -6.143    -5.742  0.1671  0.7710  0.6145
              Bcc     0.2696    36.174    12.908    12.066  0.9782 -0.0517 -0.2011
 
              Baa    -0.3224  -161.911   -57.774   -54.008  0.2344 -0.6729  0.7016
    10 F(19)  Bbb    -0.3156  -158.504   -56.558   -52.871  0.0659  0.7310  0.6791
              Bcc     0.6380   320.415   114.332   106.879  0.9699  0.1130 -0.2157
 
              Baa    -0.2992  -150.279   -53.623   -50.128  0.1587 -0.3200  0.9340
    11 F(19)  Bbb    -0.2972  -149.258   -53.259   -49.787 -0.0457  0.9426  0.3307
              Bcc     0.5964   299.536   106.882    99.915  0.9863  0.0951 -0.1350
 
              Baa    -0.1302   -17.469    -6.233    -5.827 -0.5643  0.7891  0.2426
    12 C(13)  Bbb    -0.1201   -16.111    -5.749    -5.374  0.5219  0.1133  0.8454
              Bcc     0.2502    33.580    11.982    11.201  0.6396  0.6037 -0.4758
 
              Baa    -0.3098  -155.572   -55.512   -51.893 -0.6081  0.7917  0.0589
    13 F(19)  Bbb    -0.3064  -153.900   -54.915   -51.335  0.3192  0.1759  0.9312
              Bcc     0.6162   309.472   110.427   103.229  0.7269  0.5850 -0.3596
 
              Baa    -0.3375  -169.483   -60.476   -56.533 -0.6763  0.7148 -0.1778
    14 F(19)  Bbb    -0.3317  -166.605   -59.449   -55.573  0.1966  0.4078  0.8916
              Bcc     0.6692   336.088   119.924   112.107  0.7099  0.5681 -0.4164
 
              Baa    -0.0476    -6.384    -2.278    -2.129  0.7302 -0.1725 -0.6611
    15 C(13)  Bbb    -0.0440    -5.908    -2.108    -1.971  0.6693 -0.0138  0.7428
              Bcc     0.0916    12.291     4.386     4.100  0.1373  0.9849 -0.1054
 
              Baa    -0.1001   -50.279   -17.941   -16.771  0.1958  0.1269  0.9724
    16 F(19)  Bbb    -0.0954   -47.924   -17.100   -15.986  0.9802 -0.0561 -0.1901
              Bcc     0.1955    98.203    35.041    32.757  0.0304  0.9903 -0.1354
 
              Baa    -0.1517   -76.201   -27.190   -25.418  0.9205 -0.3084  0.2399
    17 F(19)  Bbb    -0.1469   -73.795   -26.332   -24.615 -0.0555  0.5047  0.8615
              Bcc     0.2987   149.995    53.522    50.033  0.3867  0.8064 -0.4474
 
              Baa    -0.1305   -65.559   -23.393   -21.868  0.6153 -0.5446 -0.5699
    18 F(19)  Bbb    -0.1226   -61.575   -21.972   -20.539  0.5325 -0.2460  0.8099
              Bcc     0.2531   127.134    45.365    42.407  0.5813  0.8018 -0.1387
 

 ---------------------------------------------------------------------------------

 No NMR shielding tensors so no spin-rotation constants.
 Leave Link  601 at Sun Feb  2 05:49:14 2025, MaxMem=  5368709120 cpu:         5.2
 (Enter /home/k0335/k033513/app/g09/l9999.exe)
 1\1\GINC-C18U01N3\SP\UCAM-B3LYP\6-31G(d,p)\C5F12O1(1+,2)\K033513\02-Fe
 b-2025\0\\#p CAM-B3LYP/6-31G(d,p) SCRF=(PCM,Solvent=Generic,Read) NoSy
 mm out=wfn\\Title FFKM1_pos\\1,2\F,0,-3.020776,0.958044,1.130967\C,0,-
 2.311161,1.220439,0.018661\F,0,-2.879065,0.622396,-1.042285\F,0,-2.327
 718,2.553388,-0.186145\O,0,-0.977758,0.824598,0.194884\C,0,-0.865881,-
 0.56734,0.041095\F,0,-0.998064,-0.86925,-1.270492\F,0,-1.896811,-1.153
 528,0.699517\C,0,0.455913,-1.110863,0.581744\F,0,0.646608,-0.659605,1.
 857546\F,0,0.360263,-2.474872,0.69769\C,0,1.665006,-0.795831,-0.268857
 \F,0,2.770349,-1.343702,0.331054\F,0,1.568128,-1.424106,-1.47785\C,0,1
 .892285,0.686344,-0.476447\F,0,1.904288,1.371786,0.687466\F,0,0.939261
 ,1.237697,-1.262814\F,0,3.075134,0.924403,-1.093937\\Version=ES64L-G09
 RevD.01\HF=-1463.0343546\S2=0.753158\S2-1=0.\S2A=0.750009\RMSD=7.176e-
 09\Dipole=0.7711628,-0.7961189,0.1342444\Quadrupole=4.3509613,-0.89903
 91,-3.4519221,-2.3251507,-0.7072176,-0.8413982\PG=C01 [X(C5F12O1)]\\@

 Writing a WFN file to "wang5/FFKM1/FFKM1_pos.wfn"


 The arm of the moral universe is long, but it bends toward justice.
 -- Martin Luther King, Jr.
 Job cpu time:       0 days  0 hours  6 minutes 12.6 seconds.
 File lengths (MBytes):  RWF=    105 Int=      0 D2E=      0 Chk=      5 Scr=      1
 Normal termination of Gaussian 09 at Sun Feb  2 05:49:15 2025.
