 Entering Gaussian System, Link 0=g09
 Initial command:
 /home/k0335/k033513/app/g09/l1.exe "/home/k0335/k033513/app/g09/scratch/Gau-2959228.inp" -scrdir="/home/k0335/k033513/app/g09/scratch/"
 Default is to use a total of  36 processors:
                               36 via shared-memory
                                1 via Linda
 Entering Link 1 = /home/k0335/k033513/app/g09/l1.exe PID=   2959229.
  
 Copyright (c) 1988,1990,1992,1993,1995,1998,2003,2009,2013,
            Gaussian, Inc.  All Rights Reserved.
  
 This is part of the Gaussian(R) 09 program.  It is based on
 the Gaussian(R) 03 system (copyright 2003, Gaussian, Inc.),
 the Gaussian(R) 98 system (copyright 1998, Gaussian, Inc.),
 the Gaussian(R) 94 system (copyright 1995, Gaussian, Inc.),
 the Gaussian 92(TM) system (copyright 1992, Gaussian, Inc.),
 the Gaussian 90(TM) system (copyright 1990, Gaussian, Inc.),
 the Gaussian 88(TM) system (copyright 1988, Gaussian, Inc.),
 the Gaussian 86(TM) system (copyright 1986, Carnegie Mellon
 University), and the Gaussian 82(TM) system (copyright 1983,
 Carnegie Mellon University). Gaussian is a federally registered
 trademark of Gaussian, Inc.
  
 This software contains proprietary and confidential information,
 including trade secrets, belonging to Gaussian, Inc.
  
 This software is provided under written license and may be
 used, copied, transmitted, or stored only in accord with that
 written license.
  
 The following legend is applicable only to US Government
 contracts under FAR:
  
                    RESTRICTED RIGHTS LEGEND
  
 Use, reproduction and disclosure by the US Government is
 subject to restrictions as set forth in subparagraphs (a)
 and (c) of the Commercial Computer Software - Restricted
 Rights clause in FAR 52.227-19.
  
 Gaussian, Inc.
 340 Quinnipiac St., Bldg. 40, Wallingford CT 06492
  
  
 ---------------------------------------------------------------
 Warning -- This program may not be used in any manner that
 competes with the business of Gaussian, Inc. or will provide
 assistance to any competitor of Gaussian, Inc.  The licensee
 of this program is prohibited from giving any competitor of
 Gaussian, Inc. access to this program.  By using this program,
 the user acknowledges that Gaussian, Inc. is engaged in the
 business of creating and licensing software in the field of
 computational chemistry and represents and warrants to the
 licensee that it is not a competitor of Gaussian, Inc. and that
 it will not use this program in any manner prohibited above.
 ---------------------------------------------------------------
  

 Cite this work as:
 Gaussian 09, Revision D.01,
 M. J. Frisch, G. W. Trucks, H. B. Schlegel, G. E. Scuseria, 
 M. A. Robb, J. R. Cheeseman, G. Scalmani, V. Barone, B. Mennucci, 
 G. A. Petersson, H. Nakatsuji, M. Caricato, X. Li, H. P. Hratchian, 
 A. F. Izmaylov, J. Bloino, G. Zheng, J. L. Sonnenberg, M. Hada, 
 M. Ehara, K. Toyota, R. Fukuda, J. Hasegawa, M. Ishida, T. Nakajima, 
 Y. Honda, O. Kitao, H. Nakai, T. Vreven, J. A. Montgomery, Jr., 
 J. E. Peralta, F. Ogliaro, M. Bearpark, J. J. Heyd, E. Brothers, 
 K. N. Kudin, V. N. Staroverov, T. Keith, R. Kobayashi, J. Normand, 
 K. Raghavachari, A. Rendell, J. C. Burant, S. S. Iyengar, J. Tomasi, 
 M. Cossi, N. Rega, J. M. Millam, M. Klene, J. E. Knox, J. B. Cross, 
 V. Bakken, C. Adamo, J. Jaramillo, R. Gomperts, R. E. Stratmann, 
 O. Yazyev, A. J. Austin, R. Cammi, C. Pomelli, J. W. Ochterski, 
 R. L. Martin, K. Morokuma, V. G. Zakrzewski, G. A. Voth, 
 P. Salvador, J. J. Dannenberg, S. Dapprich, A. D. Daniels, 
 O. Farkas, J. B. Foresman, J. V. Ortiz, J. Cioslowski, 
 and D. J. Fox, Gaussian, Inc., Wallingford CT, 2013.
 
 ******************************************
 Gaussian 09:  ES64L-G09RevD.01 24-Apr-2013
                 3-Feb-2025 
 ******************************************
 %nprocshared=24
 Will use up to   24 processors via shared memory.
 %mem=40GB
 %rwf=cytop/A1/A1_neu.rwf
 %nosave
 %chk=cytop/A1/A1_neu.chk
 ----------------------------------------------------------------------
 #p CAM-B3LYP/6-31G(d,p) SCRF=(PCM,Solvent=Generic,Read) NoSymm out=wfn
 ----------------------------------------------------------------------
 1/38=1,40=2/1;
 2/12=2,15=1,17=6,18=5,40=1/2;
 3/5=1,6=6,7=101,11=2,16=1,25=1,30=1,70=2203,72=-2,74=-40/1,2,3;
 4//1;
 5/5=2,38=5/2;
 6/7=2,8=2,9=2,10=2,28=1/1;
 99/5=1,6=100,9=1/99;
 Leave Link    1 at Mon Feb  3 21:43:34 2025, MaxMem=  5368709120 cpu:         0.9
 (Enter /home/k0335/k033513/app/g09/l101.exe)
 ------------
 Title A1_neu
 ------------
 Symbolic Z-matrix:
 Charge =  0 Multiplicity = 1
 F                     1.21956  -0.46969  -1.43835 
 C                     0.77947   0.33295  -0.43317 
 C                     1.85935   0.38826   0.63532 
 F                     2.87302   1.19958   0.21017 
 C                     2.45922  -0.98878   0.94351 
 F                     3.38714  -0.91039   1.92795 
 F                     1.53773  -1.8921    1.33821 
 F                     3.08145  -1.51494  -0.13815 
 F                     1.38342   0.96861   1.76543 
 C                    -0.58803  -0.09026   0.12442 
 O                    -1.35333   1.09462   0.42519 
 C                    -0.57358   2.20719  -0.00224 
 F                    -1.38955   3.14986  -0.50924 
 F                     0.00974   2.72448   1.09693 
 C                     0.43251   1.68322  -0.99865 
 F                    -0.18436   1.50853  -2.20191 
 F                     1.47688   2.4922   -1.23109 
 C                    -1.35081  -1.04068  -0.81244 
 F                    -0.56663  -2.1294   -1.07213 
 C                    -2.66978  -1.43888  -0.16398 
 O                    -2.60732  -2.57791   0.56276 
 O                    -3.72886  -0.83206  -0.23733 
 F                    -1.55137  -0.43705  -2.01666 
 F                    -0.41862  -0.7132    1.32008 
 H                    -3.51724  -2.71415   0.90537 
 
 NAtoms=     25 NQM=       25 NQMF=       0 NMMI=      0 NMMIF=      0
                NMic=       0 NMicF=      0.
                    Isotopes and Nuclear Properties:
 (Nuclear quadrupole moments (NQMom) in fm**2, nuclear magnetic moments (NMagM)
  in nuclear magnetons)

  Atom         1           2           3           4           5           6           7           8           9          10
 IAtWgt=          19          12          12          19          12          19          19          19          19          12
 AtmWgt=  18.9984033  12.0000000  12.0000000  18.9984033  12.0000000  18.9984033  18.9984033  18.9984033  18.9984033  12.0000000
 NucSpn=           1           0           0           1           0           1           1           1           1           0
 AtZEff=   0.0000000   0.0000000   0.0000000   0.0000000   0.0000000   0.0000000   0.0000000   0.0000000   0.0000000   0.0000000
 NQMom=    0.0000000   0.0000000   0.0000000   0.0000000   0.0000000   0.0000000   0.0000000   0.0000000   0.0000000   0.0000000
 NMagM=    2.6288670   0.0000000   0.0000000   2.6288670   0.0000000   2.6288670   2.6288670   2.6288670   2.6288670   0.0000000
 AtZNuc=   9.0000000   6.0000000   6.0000000   9.0000000   6.0000000   9.0000000   9.0000000   9.0000000   9.0000000   6.0000000

  Atom        11          12          13          14          15          16          17          18          19          20
 IAtWgt=          16          12          19          19          12          19          19          12          19          12
 AtmWgt=  15.9949146  12.0000000  18.9984033  18.9984033  12.0000000  18.9984033  18.9984033  12.0000000  18.9984033  12.0000000
 NucSpn=           0           0           1           1           0           1           1           0           1           0
 AtZEff=   0.0000000   0.0000000   0.0000000   0.0000000   0.0000000   0.0000000   0.0000000   0.0000000   0.0000000   0.0000000
 NQMom=    0.0000000   0.0000000   0.0000000   0.0000000   0.0000000   0.0000000   0.0000000   0.0000000   0.0000000   0.0000000
 NMagM=    0.0000000   0.0000000   2.6288670   2.6288670   0.0000000   2.6288670   2.6288670   0.0000000   2.6288670   0.0000000
 AtZNuc=   8.0000000   6.0000000   9.0000000   9.0000000   6.0000000   9.0000000   9.0000000   6.0000000   9.0000000   6.0000000

  Atom        21          22          23          24          25
 IAtWgt=          16          16          19          19           1
 AtmWgt=  15.9949146  15.9949146  18.9984033  18.9984033   1.0078250
 NucSpn=           0           0           1           1           1
 AtZEff=   0.0000000   0.0000000   0.0000000   0.0000000   0.0000000
 NQMom=    0.0000000   0.0000000   0.0000000   0.0000000   0.0000000
 NMagM=    0.0000000   0.0000000   2.6288670   2.6288670   2.7928460
 AtZNuc=   8.0000000   8.0000000   9.0000000   9.0000000   1.0000000
 Leave Link  101 at Mon Feb  3 21:43:34 2025, MaxMem=  5368709120 cpu:         0.6
 (Enter /home/k0335/k033513/app/g09/l202.exe)
                          Input orientation:                          
 ---------------------------------------------------------------------
 Center     Atomic      Atomic             Coordinates (Angstroms)
 Number     Number       Type             X           Y           Z
 ---------------------------------------------------------------------
      1          9           0        1.219555   -0.469690   -1.438345
      2          6           0        0.779469    0.332949   -0.433167
      3          6           0        1.859349    0.388257    0.635317
      4          9           0        2.873015    1.199583    0.210166
      5          6           0        2.459220   -0.988782    0.943508
      6          9           0        3.387143   -0.910389    1.927950
      7          9           0        1.537727   -1.892104    1.338213
      8          9           0        3.081449   -1.514937   -0.138147
      9          9           0        1.383421    0.968605    1.765430
     10          6           0       -0.588027   -0.090257    0.124421
     11          8           0       -1.353326    1.094617    0.425186
     12          6           0       -0.573582    2.207188   -0.002239
     13          9           0       -1.389548    3.149855   -0.509243
     14          9           0        0.009738    2.724478    1.096926
     15          6           0        0.432513    1.683224   -0.998645
     16          9           0       -0.184363    1.508533   -2.201908
     17          9           0        1.476877    2.492203   -1.231086
     18          6           0       -1.350805   -1.040682   -0.812442
     19          9           0       -0.566629   -2.129401   -1.072131
     20          6           0       -2.669780   -1.438875   -0.163976
     21          8           0       -2.607324   -2.577909    0.562757
     22          8           0       -3.728862   -0.832062   -0.237334
     23          9           0       -1.551370   -0.437054   -2.016656
     24          9           0       -0.418617   -0.713200    1.320078
     25          1           0       -3.517242   -2.714148    0.905365
 ---------------------------------------------------------------------
                    Distance matrix (angstroms):
                    1          2          3          4          5
     1  F    0.000000
     2  C    1.359518   0.000000
     3  C    2.333556   1.520151   0.000000
     4  F    2.870190   2.355391   1.366207   0.000000
     5  C    2.734858   2.542395   1.533318   2.344773   0.000000
     6  F    4.027977   3.731049   2.385694   2.768951   1.355106
     7  F    3.135884   2.943400   2.407810   3.551621   1.349419
     8  F    2.499941   2.966620   2.390381   2.744701   1.354247
     9  F    3.515639   2.366991   1.356638   2.165892   2.379971
    10  C    2.419413   1.536246   2.545514   3.694570   3.280848
    11  O    3.541119   2.421925   3.296116   4.233109   4.375468
    12  C    3.527523   2.351429   3.103891   3.597140   4.506279
    13  F    4.557604   3.556035   4.414949   4.742421   5.835393
    14  F    4.253700   2.941612   3.015306   3.363035   4.451045
    15  C    2.334054   1.504456   2.526387   2.766077   3.875450
    16  F    2.543104   2.332255   3.671733   3.906547   4.808197
    17  F    2.980265   2.405292   2.838368   2.386897   4.220321
    18  C    2.706388   2.562963   3.800390   4.889291   4.195515
    19  F    2.465605   2.878094   3.890932   4.955560   3.810456
    20  C    4.205979   3.887048   4.948767   6.150124   5.266474
    21  O    4.805622   4.575514   5.362329   6.665424   5.323548
    22  O    5.104956   4.660542   5.786087   6.921894   6.301691
    23  F    2.830819   2.921156   4.398534   5.216560   5.015158
    24  F    3.217422   2.367215   2.621304   3.965537   2.915424
    25  H    5.741761   5.434905   6.213338   7.525688   6.220646
                    6          7          8          9         10
     6  F    0.000000
     7  F    2.175292   0.000000
     8  F    2.174324   2.169095   0.000000
     9  F    2.751715   2.896546   3.560181   0.000000
    10  C    4.441544   3.039535   3.945087   2.775015   0.000000
    11  O    5.361939   4.255856   5.176325   3.049904   1.442244
    12  C    5.397431   4.801940   5.218423   2.913521   2.300979
    13  F    6.726237   6.115831   6.472079   4.197779   3.397395
    14  F    5.030877   4.868860   5.378983   2.327443   3.037404
    15  C    4.901186   4.411958   4.240938   3.009156   2.334098
    16  F    5.971814   5.202152   4.905712   4.299912   2.851470
    17  F    5.020583   5.082042   4.452678   3.362914   3.573559
    18  C    5.474932   3.700521   4.508267   4.261297   1.537157
    19  F    5.110654   3.208486   3.815543   4.631640   2.364382
    20  C    6.429756   4.490557   5.751790   5.093820   2.497126
    21  O    6.370087   4.272366   5.829521   5.472680   3.233900
    22  O    7.438556   5.598482   6.845180   5.778313   3.247458
    23  F    6.338207   4.786944   5.114063   4.989294   2.373291
    24  F    3.859041   2.284168   3.875521   2.504825   1.358806
    25  H    7.209005   5.139633   6.787470   6.190224   4.009361
                   11         12         13         14         15
    11  O    0.000000
    12  C    1.424257   0.000000
    13  F    2.257980   1.345910   0.000000
    14  F    2.228368   1.347596   2.172263   0.000000
    15  C    2.358596   1.509831   2.389650   2.377891   0.000000
    16  F    2.905069   2.340546   2.647928   3.521151   1.363413
    17  F    3.564622   2.407422   3.028193   2.761537   1.341332
    18  C    2.468042   3.436446   4.201670   4.435447   3.261067
    19  F    3.640761   4.466623   5.372577   5.347630   3.942055
    20  C    2.915261   4.208798   4.776468   5.109129   4.479776
    21  O    3.883154   5.229960   5.953104   5.937142   5.462219
    22  O    3.129568   4.387266   4.626228   5.329761   4.921717
    23  F    2.889261   3.464962   3.894149   4.703906   3.076966
    24  F    2.223222   3.209549   4.383186   3.471443   3.441474
    25  H    4.406790   5.805896   6.396462   6.484978   6.209887
                   16         17         18         19         20
    16  F    0.000000
    17  F    2.160977   0.000000
    18  C    3.128850   4.544483   0.000000
    19  F    3.828458   5.055730   1.366631   0.000000
    20  C    4.360926   5.812647   1.522748   2.392659   0.000000
    21  O    5.496646   6.753118   2.415177   2.653009   1.352568
    22  O    4.679894   6.256037   2.455489   3.518479   1.222807
    23  F    2.385023   4.285784   1.361883   2.173909   2.384724
    24  F    4.170774   4.513972   2.350289   2.783918   2.792267
    25  H    6.212428   7.524077   3.231841   3.599797   1.867620
                   21         22         23         24         25
    21  O    0.000000
    22  O    2.223955   0.000000
    23  F    3.514494   2.839628   0.000000
    24  F    2.973401   3.660243   3.534569   0.000000
    25  H    0.981780   2.211966   4.193807   3.711773   0.000000
 Symmetry turned off by external request.
 Stoichiometry    C8HF13O3
 Framework group  C1[X(C8HF13O3)]
 Deg. of freedom    69
 Full point group                 C1      NOp   1
 Rotational constants (GHZ):      0.3353720      0.2655106      0.1989189
 Leave Link  202 at Mon Feb  3 21:43:34 2025, MaxMem=  5368709120 cpu:         0.1
 (Enter /home/k0335/k033513/app/g09/l301.exe)
 Standard basis: 6-31G(d,p) (6D, 7F)
 Ernie: Thresh=  0.10000D-02 Tol=  0.10000D-05 Strict=F.
   365 basis functions,   679 primitive gaussians,   365 cartesian basis functions
    95 alpha electrons       95 beta electrons
       nuclear repulsion energy      2870.1012823929 Hartrees.
 IExCor=20419 DFT=T Ex+Corr=CAM-B3LYP ExCW=0 ScaHFX=  1.000000
 ScaDFX=  1.000000  1.000000  1.000000  0.810000 ScalE2=  1.000000  1.000000
 IRadAn=      0 IRanWt=     -1 IRanGd=            0 ICorTp=0 IEmpDi=  4
  HFx wShort=  0.000000 wLong=  0.330000 cFull=  0.190000 cShort=  0.000000 cLong=  0.460000
  DFx wShort=  0.000000 wLong=  0.330000 cFull=  0.190000 cShort=  0.000000 cLong=  0.460000
 NAtoms=   25 NActive=   25 NUniq=   25 SFac= 1.00D+00 NAtFMM=   60 NAOKFM=F Big=F
 Integral buffers will be    131072 words long.
 Raffenetti 2 integral format.
 Two-electron integral symmetry is turned off.
 Using the following non-standard input for PCM:
 eps=2.05
 --- end of non-standard input.
 ------------------------------------------------------------------------------
 Polarizable Continuum Model (PCM)
 =================================
 Model                : PCM (using non-symmetric T matrix).
 Atomic radii         : UFF (Universal Force Field).
 Polarization charges : Total charges.
 Charge compensation  : None.
 Solution method      : On-the-fly selection.
 Cavity type          : Scaled VdW (van der Waals Surface) (Alpha=1.100).
 Cavity algorithm     : GePol (No added spheres)
                        Default sphere list used, NSphG=   25.
                        Lebedev-Laikov grids with approx.  5.0 points / Ang**2.
                        Smoothing algorithm: Karplus/York (Gamma=1.0000).
                        Polarization charges: spherical gaussians, with
                                              point-specific exponents (IZeta= 3).
                        Self-potential: point-specific (ISelfS= 7).
                        Self-field    : sphere-specific E.n sum rule (ISelfD= 2).
 Solvent              : Generic,
                        Eps                           =   2.050000
                        Eps(infinity)                 =   0.000000
                        RSolv                         =   0.000000 Ang.
                        Molar volume                  =   0.000000 cm**3/mol
                        Thermal expansion coefficient =   0.000000 K**-1
                        Absolute temperature          = 298.150000 K
                        Numeral density               =   0.000000 Ang**-3
                        Hydrogen bond acidity         =   0.000000
                        Hydrogen bond basicity        =   0.000000
                        Surface tension at interface  =   0.000000 (cal/mol)*Ang**-2
                        Carbon aromaticity            =   0.000000
                        Electronegative halogenicity  =   0.000000
 ------------------------------------------------------------------------------
 GePol: Number of generator spheres                  =      25
 GePol: Total number of spheres                      =      25
 GePol: Number of exposed spheres                    =      24 ( 96.00%)
 GePol: Number of points                             =    2225
 GePol: Average weight of points                     =       0.13
 GePol: Minimum weight of points                     =   0.31D-10
 GePol: Maximum weight of points                     =    0.20577
 GePol: Number of points with low weight             =      81
 GePol: Fraction of low-weight points (<1% of avg)   =       3.64%
 GePol: Cavity surface area                          =    281.175 Ang**2
 GePol: Cavity volume                                =    314.717 Ang**3
 Leave Link  301 at Mon Feb  3 21:43:34 2025, MaxMem=  5368709120 cpu:         0.6
 (Enter /home/k0335/k033513/app/g09/l302.exe)
 NPDir=0 NMtPBC=     1 NCelOv=     1 NCel=       1 NClECP=     1 NCelD=      1
         NCelK=      1 NCelE2=     1 NClLst=     1 CellRange=     0.0.
 One-electron integrals computed using PRISM.
 NBasis=   365 RedAO= T EigKep=  8.62D-04  NBF=   365
 NBsUse=   365 1.00D-06 EigRej= -1.00D+00 NBFU=   365
 Precomputing XC quadrature grid using
 IXCGrd= 4 IRadAn=           0 IRanWt=          -1 IRanGd=           0 AccXCQ= 0.00D+00.
 Generated NRdTot=       0 NPtTot=           0 NUsed=           0 NTot=          32
 NSgBfM=   362   362   362   362   362 MxSgAt=    25 MxSgA2=    25.
 Leave Link  302 at Mon Feb  3 21:43:34 2025, MaxMem=  5368709120 cpu:         4.7
 (Enter /home/k0335/k033513/app/g09/l303.exe)
 DipDrv:  MaxL=1.
 Leave Link  303 at Mon Feb  3 21:43:34 2025, MaxMem=  5368709120 cpu:         0.4
 (Enter /home/k0335/k033513/app/g09/l401.exe)
 ExpMin= 1.61D-01 ExpMax= 7.00D+03 ExpMxC= 1.05D+03 IAcc=1 IRadAn=         1 AccDes= 0.00D+00
 Harris functional with IExCor=20419 and IRadAn=       1 diagonalized for initial guess.
 HarFok:  IExCor=20419 AccDes= 0.00D+00 IRadAn=         1 IDoV= 1 UseB2=F ITyADJ=14
 ICtDFT=  3500011 ScaDFX=  1.000000  1.000000  1.000000  1.000000
 FoFCou: FMM=F IPFlag=           0 FMFlag=      100000 FMFlg1=           0
         NFxFlg=           0 DoJE=T BraDBF=F KetDBF=T FulRan=T
         wScrn=  0.000000 ICntrl=     500 IOpCl=  0 I1Cent=   200000004 NGrid=           0
         NMat0=    1 NMatS0=      1 NMatT0=    0 NMatD0=    1 NMtDS0=    0 NMtDT0=    0
 Symmetry not used in FoFCou.
 Harris En= -1774.89580531663    
 JPrj=0 DoOrth=F DoCkMO=F.
 Leave Link  401 at Mon Feb  3 21:43:35 2025, MaxMem=  5368709120 cpu:         5.8
 (Enter /home/k0335/k033513/app/g09/l502.exe)
 Closed shell SCF:
 Using DIIS extrapolation, IDIIS=  1040.
 Two-electron integral symmetry not used.
 Keep R1 ints in memory in canonical form, NReq=4486581810.
 IVT=      429225 IEndB=      429225 NGot=  5368709120 MDV=   906641076
 LenX=   906641076 LenY=   906507410
 Requested convergence on RMS density matrix=1.00D-08 within 128 cycles.
 Requested convergence on MAX density matrix=1.00D-06.
 Requested convergence on             energy=1.00D-06.
 No special actions if energy rises.
 FoFCou: FMM=F IPFlag=           0 FMFlag=           0 FMFlg1=           0
         NFxFlg=           0 DoJE=F BraDBF=F KetDBF=F FulRan=T
         wScrn=  0.000000 ICntrl=     600 IOpCl=  0 I1Cent=           0 NGrid=           0
         NMat0=    1 NMatS0=  66795 NMatT0=    0 NMatD0=    1 NMtDS0=    0 NMtDT0=    0
 Symmetry not used in FoFCou.

 Cycle   1  Pass 1  IDiag  1:
 Inv3:  Mode=1 IEnd=    14851875.
 Iteration    1 A*A^-1 deviation from unit magnitude is 7.44D-15 for    624.
 Iteration    1 A*A^-1 deviation from orthogonality  is 3.46D-15 for   2206   1669.
 Iteration    1 A^-1*A deviation from unit magnitude is 5.77D-15 for    299.
 Iteration    1 A^-1*A deviation from orthogonality  is 1.86D-15 for   2217   1694.
 E= -1827.95710704934    
 DIIS: error= 5.33D-02 at cycle   1 NSaved=   1.
 NSaved= 1 IEnMin= 1 EnMin= -1827.95710704934     IErMin= 1 ErrMin= 5.33D-02
 ErrMax= 5.33D-02  0.00D+00 EMaxC= 1.00D-01 BMatC= 1.49D+00 BMatP= 1.49D+00
 IDIUse=3 WtCom= 4.67D-01 WtEn= 5.33D-01
 Coeff-Com:  0.100D+01
 Coeff-En:   0.100D+01
 Coeff:      0.100D+01
 Gap=     0.455 Goal=   None    Shift=    0.000
 GapD=    0.455 DampG=2.000 DampE=0.500 DampFc=1.0000 IDamp=-1.
 RMSDP=3.90D-03 MaxDP=1.64D-01              OVMax= 1.24D-01

 Cycle   2  Pass 1  IDiag  1:
 E= -1828.18803815213     Delta-E=       -0.230931102786 Rises=F Damp=F
 DIIS: error= 2.69D-02 at cycle   2 NSaved=   2.
 NSaved= 2 IEnMin= 2 EnMin= -1828.18803815213     IErMin= 2 ErrMin= 2.69D-02
 ErrMax= 2.69D-02  0.00D+00 EMaxC= 1.00D-01 BMatC= 5.75D-01 BMatP= 1.49D+00
 IDIUse=3 WtCom= 7.31D-01 WtEn= 2.69D-01
 Coeff-Com:  0.365D+00 0.635D+00
 Coeff-En:   0.329D+00 0.671D+00
 Coeff:      0.356D+00 0.644D+00
 Gap=     0.404 Goal=   None    Shift=    0.000
 RMSDP=1.76D-03 MaxDP=8.90D-02 DE=-2.31D-01 OVMax= 8.79D-02

 Cycle   3  Pass 1  IDiag  1:
 E= -1828.44479414929     Delta-E=       -0.256755997168 Rises=F Damp=F
 DIIS: error= 8.33D-03 at cycle   3 NSaved=   3.
 NSaved= 3 IEnMin= 3 EnMin= -1828.44479414929     IErMin= 3 ErrMin= 8.33D-03
 ErrMax= 8.33D-03  0.00D+00 EMaxC= 1.00D-01 BMatC= 1.02D-01 BMatP= 5.75D-01
 IDIUse=3 WtCom= 9.17D-01 WtEn= 8.33D-02
 Coeff-Com:  0.894D-01 0.324D+00 0.587D+00
 Coeff-En:   0.000D+00 0.117D+00 0.883D+00
 Coeff:      0.820D-01 0.306D+00 0.612D+00
 Gap=     0.372 Goal=   None    Shift=    0.000
 RMSDP=8.18D-04 MaxDP=4.36D-02 DE=-2.57D-01 OVMax= 6.32D-02

 Cycle   4  Pass 1  IDiag  1:
 E= -1828.50427249855     Delta-E=       -0.059478349252 Rises=F Damp=F
 DIIS: error= 2.81D-03 at cycle   4 NSaved=   4.
 NSaved= 4 IEnMin= 4 EnMin= -1828.50427249855     IErMin= 4 ErrMin= 2.81D-03
 ErrMax= 2.81D-03  0.00D+00 EMaxC= 1.00D-01 BMatC= 8.04D-03 BMatP= 1.02D-01
 IDIUse=3 WtCom= 9.72D-01 WtEn= 2.81D-02
 Coeff-Com:  0.456D-02 0.755D-01 0.291D+00 0.629D+00
 Coeff-En:   0.000D+00 0.000D+00 0.163D-01 0.984D+00
 Coeff:      0.444D-02 0.734D-01 0.283D+00 0.639D+00
 Gap=     0.373 Goal=   None    Shift=    0.000
 RMSDP=2.17D-04 MaxDP=1.48D-02 DE=-5.95D-02 OVMax= 2.34D-02

 Cycle   5  Pass 1  IDiag  1:
 E= -1828.50973569663     Delta-E=       -0.005463198087 Rises=F Damp=F
 DIIS: error= 1.00D-03 at cycle   5 NSaved=   5.
 NSaved= 5 IEnMin= 5 EnMin= -1828.50973569663     IErMin= 5 ErrMin= 1.00D-03
 ErrMax= 1.00D-03  0.00D+00 EMaxC= 1.00D-01 BMatC= 5.49D-04 BMatP= 8.04D-03
 IDIUse=3 WtCom= 9.90D-01 WtEn= 1.00D-02
 Coeff-Com: -0.317D-03 0.322D-01 0.148D+00 0.375D+00 0.445D+00
 Coeff-En:   0.000D+00 0.000D+00 0.000D+00 0.000D+00 0.100D+01
 Coeff:     -0.314D-03 0.318D-01 0.147D+00 0.371D+00 0.451D+00
 Gap=     0.369 Goal=   None    Shift=    0.000
 RMSDP=4.77D-05 MaxDP=4.29D-03 DE=-5.46D-03 OVMax= 7.85D-03

 Cycle   6  Pass 1  IDiag  1:
 E= -1828.51011693115     Delta-E=       -0.000381234518 Rises=F Damp=F
 DIIS: error= 1.22D-04 at cycle   6 NSaved=   6.
 NSaved= 6 IEnMin= 6 EnMin= -1828.51011693115     IErMin= 6 ErrMin= 1.22D-04
 ErrMax= 1.22D-04  0.00D+00 EMaxC= 1.00D-01 BMatC= 1.21D-05 BMatP= 5.49D-04
 IDIUse=3 WtCom= 9.99D-01 WtEn= 1.22D-03
 Coeff-Com: -0.507D-03 0.731D-04 0.735D-02 0.262D-01 0.133D+00 0.834D+00
 Coeff-En:   0.000D+00 0.000D+00 0.000D+00 0.000D+00 0.000D+00 0.100D+01
 Coeff:     -0.506D-03 0.730D-04 0.734D-02 0.262D-01 0.133D+00 0.834D+00
 Gap=     0.370 Goal=   None    Shift=    0.000
 RMSDP=1.27D-05 MaxDP=6.78D-04 DE=-3.81D-04 OVMax= 1.15D-03

 Cycle   7  Pass 1  IDiag  1:
 E= -1828.51012625618     Delta-E=       -0.000009325026 Rises=F Damp=F
 DIIS: error= 4.15D-05 at cycle   7 NSaved=   7.
 NSaved= 7 IEnMin= 7 EnMin= -1828.51012625618     IErMin= 7 ErrMin= 4.15D-05
 ErrMax= 4.15D-05  0.00D+00 EMaxC= 1.00D-01 BMatC= 2.59D-06 BMatP= 1.21D-05
 IDIUse=1 WtCom= 1.00D+00 WtEn= 0.00D+00
 Coeff-Com: -0.196D-03-0.310D-02-0.104D-01-0.229D-01 0.274D-01 0.417D+00
 Coeff-Com:  0.592D+00
 Coeff:     -0.196D-03-0.310D-02-0.104D-01-0.229D-01 0.274D-01 0.417D+00
 Coeff:      0.592D+00
 Gap=     0.370 Goal=   None    Shift=    0.000
 RMSDP=3.96D-06 MaxDP=2.21D-04 DE=-9.33D-06 OVMax= 4.00D-04

 Cycle   8  Pass 1  IDiag  1:
 E= -1828.51012814669     Delta-E=       -0.000001890518 Rises=F Damp=F
 DIIS: error= 8.98D-06 at cycle   8 NSaved=   8.
 NSaved= 8 IEnMin= 8 EnMin= -1828.51012814669     IErMin= 8 ErrMin= 8.98D-06
 ErrMax= 8.98D-06  0.00D+00 EMaxC= 1.00D-01 BMatC= 1.28D-07 BMatP= 2.59D-06
 IDIUse=1 WtCom= 1.00D+00 WtEn= 0.00D+00
 Coeff-Com: -0.120D-04-0.111D-02-0.442D-02-0.113D-01-0.278D-02 0.478D-01
 Coeff-Com:  0.195D+00 0.777D+00
 Coeff:     -0.120D-04-0.111D-02-0.442D-02-0.113D-01-0.278D-02 0.478D-01
 Coeff:      0.195D+00 0.777D+00
 Gap=     0.370 Goal=   None    Shift=    0.000
 RMSDP=1.35D-06 MaxDP=5.99D-05 DE=-1.89D-06 OVMax= 1.40D-04

 Cycle   9  Pass 1  IDiag  1:
 E= -1828.51012828280     Delta-E=       -0.000000136105 Rises=F Damp=F
 DIIS: error= 3.04D-06 at cycle   9 NSaved=   9.
 NSaved= 9 IEnMin= 9 EnMin= -1828.51012828280     IErMin= 9 ErrMin= 3.04D-06
 ErrMax= 3.04D-06  0.00D+00 EMaxC= 1.00D-01 BMatC= 1.21D-08 BMatP= 1.28D-07
 IDIUse=1 WtCom= 1.00D+00 WtEn= 0.00D+00
 Coeff-Com:  0.167D-04-0.186D-04-0.270D-03-0.119D-02-0.277D-02-0.327D-01
 Coeff-Com: -0.285D-02 0.208D+00 0.832D+00
 Coeff:      0.167D-04-0.186D-04-0.270D-03-0.119D-02-0.277D-02-0.327D-01
 Coeff:     -0.285D-02 0.208D+00 0.832D+00
 Gap=     0.370 Goal=   None    Shift=    0.000
 RMSDP=5.48D-07 MaxDP=2.60D-05 DE=-1.36D-07 OVMax= 5.89D-05

 Cycle  10  Pass 1  IDiag  1:
 E= -1828.51012829859     Delta-E=       -0.000000015788 Rises=F Damp=F
 DIIS: error= 9.11D-07 at cycle  10 NSaved=  10.
 NSaved=10 IEnMin=10 EnMin= -1828.51012829859     IErMin=10 ErrMin= 9.11D-07
 ErrMax= 9.11D-07  0.00D+00 EMaxC= 1.00D-01 BMatC= 1.80D-09 BMatP= 1.21D-08
 IDIUse=1 WtCom= 1.00D+00 WtEn= 0.00D+00
 Coeff-Com:  0.721D-05 0.130D-03 0.444D-03 0.931D-03-0.221D-03-0.181D-01
 Coeff-Com: -0.235D-01-0.235D-01 0.305D+00 0.759D+00
 Coeff:      0.721D-05 0.130D-03 0.444D-03 0.931D-03-0.221D-03-0.181D-01
 Coeff:     -0.235D-01-0.235D-01 0.305D+00 0.759D+00
 Gap=     0.370 Goal=   None    Shift=    0.000
 RMSDP=1.80D-07 MaxDP=8.08D-06 DE=-1.58D-08 OVMax= 1.94D-05

 Cycle  11  Pass 1  IDiag  1:
 E= -1828.51012830043     Delta-E=       -0.000000001846 Rises=F Damp=F
 DIIS: error= 3.04D-07 at cycle  11 NSaved=  11.
 NSaved=11 IEnMin=11 EnMin= -1828.51012830043     IErMin=11 ErrMin= 3.04D-07
 ErrMax= 3.04D-07  0.00D+00 EMaxC= 1.00D-01 BMatC= 1.92D-10 BMatP= 1.80D-09
 IDIUse=1 WtCom= 1.00D+00 WtEn= 0.00D+00
 Coeff-Com:  0.140D-05 0.548D-04 0.205D-03 0.484D-03 0.300D-03-0.444D-02
 Coeff-Com: -0.831D-02-0.262D-01 0.500D-01 0.296D+00 0.691D+00
 Coeff:      0.140D-05 0.548D-04 0.205D-03 0.484D-03 0.300D-03-0.444D-02
 Coeff:     -0.831D-02-0.262D-01 0.500D-01 0.296D+00 0.691D+00
 Gap=     0.370 Goal=   None    Shift=    0.000
 RMSDP=4.74D-08 MaxDP=1.63D-06 DE=-1.85D-09 OVMax= 4.56D-06

 Cycle  12  Pass 1  IDiag  1:
 E= -1828.51012830056     Delta-E=       -0.000000000122 Rises=F Damp=F
 DIIS: error= 1.23D-07 at cycle  12 NSaved=  12.
 NSaved=12 IEnMin=12 EnMin= -1828.51012830056     IErMin=12 ErrMin= 1.23D-07
 ErrMax= 1.23D-07  0.00D+00 EMaxC= 1.00D-01 BMatC= 2.27D-11 BMatP= 1.92D-10
 IDIUse=1 WtCom= 1.00D+00 WtEn= 0.00D+00
 Coeff-Com: -0.686D-06-0.160D-05 0.908D-06 0.212D-04 0.202D-03 0.136D-02
 Coeff-Com:  0.114D-02-0.548D-02-0.324D-01-0.268D-01 0.239D+00 0.823D+00
 Coeff:     -0.686D-06-0.160D-05 0.908D-06 0.212D-04 0.202D-03 0.136D-02
 Coeff:      0.114D-02-0.548D-02-0.324D-01-0.268D-01 0.239D+00 0.823D+00
 Gap=     0.370 Goal=   None    Shift=    0.000
 RMSDP=1.99D-08 MaxDP=6.77D-07 DE=-1.22D-10 OVMax= 1.95D-06

 Cycle  13  Pass 1  IDiag  1:
 E= -1828.51012830064     Delta-E=       -0.000000000085 Rises=F Damp=F
 DIIS: error= 2.74D-08 at cycle  13 NSaved=  13.
 NSaved=13 IEnMin=13 EnMin= -1828.51012830064     IErMin=13 ErrMin= 2.74D-08
 ErrMax= 2.74D-08  0.00D+00 EMaxC= 1.00D-01 BMatC= 1.30D-12 BMatP= 2.27D-11
 IDIUse=1 WtCom= 1.00D+00 WtEn= 0.00D+00
 Coeff-Com: -0.289D-06-0.407D-05-0.128D-04-0.264D-04 0.474D-04 0.665D-03
 Coeff-Com:  0.908D-03-0.277D-04-0.127D-01-0.272D-01 0.269D-01 0.241D+00
 Coeff-Com:  0.770D+00
 Coeff:     -0.289D-06-0.407D-05-0.128D-04-0.264D-04 0.474D-04 0.665D-03
 Coeff:      0.908D-03-0.277D-04-0.127D-01-0.272D-01 0.269D-01 0.241D+00
 Coeff:      0.770D+00
 Gap=     0.370 Goal=   None    Shift=    0.000
 RMSDP=4.72D-09 MaxDP=1.96D-07 DE=-8.55D-11 OVMax= 5.91D-07

 Error on total polarization charges =  0.00068
 SCF Done:  E(RCAM-B3LYP) =  -1828.51012830     A.U. after   13 cycles
            NFock= 13  Conv=0.47D-08     -V/T= 2.0069
 KE= 1.815896409959D+03 PE=-1.007029651416D+04 EE= 3.555788693506D+03
 Leave Link  502 at Mon Feb  3 21:44:09 2025, MaxMem=  5368709120 cpu:       345.8
 (Enter /home/k0335/k033513/app/g09/l601.exe)
 Copying SCF densities to generalized density rwf, IOpCl= 0 IROHF=0.

 **********************************************************************

            Population analysis using the SCF density.

 **********************************************************************

 Alpha  occ. eigenvalues --  -24.83787 -24.83614 -24.83599 -24.83271 -24.83261
 Alpha  occ. eigenvalues --  -24.83196 -24.83036 -24.83018 -24.82991 -24.82935
 Alpha  occ. eigenvalues --  -24.82926 -24.82631 -24.82482 -19.32503 -19.30194
 Alpha  occ. eigenvalues --  -19.25538 -10.55211 -10.53167 -10.50343 -10.49345
 Alpha  occ. eigenvalues --  -10.49229 -10.48086 -10.44489 -10.43663  -1.42154
 Alpha  occ. eigenvalues --   -1.40852  -1.38866  -1.38602  -1.38264  -1.36198
 Alpha  occ. eigenvalues --   -1.35719  -1.33016  -1.32944  -1.32424  -1.32148
 Alpha  occ. eigenvalues --   -1.31769  -1.31287  -1.22125  -1.20745  -1.12282
 Alpha  occ. eigenvalues --   -0.98213  -0.91933  -0.90315  -0.85132  -0.80377
 Alpha  occ. eigenvalues --   -0.77962  -0.76058  -0.74109  -0.71988  -0.71386
 Alpha  occ. eigenvalues --   -0.71117  -0.69991  -0.69155  -0.68617  -0.67862
 Alpha  occ. eigenvalues --   -0.67179  -0.66187  -0.66067  -0.65364  -0.64730
 Alpha  occ. eigenvalues --   -0.63902  -0.62186  -0.58528  -0.58407  -0.57848
 Alpha  occ. eigenvalues --   -0.57638  -0.57084  -0.56289  -0.55798  -0.55711
 Alpha  occ. eigenvalues --   -0.55330  -0.54513  -0.54228  -0.54117  -0.53728
 Alpha  occ. eigenvalues --   -0.53024  -0.52826  -0.52669  -0.52390  -0.51601
 Alpha  occ. eigenvalues --   -0.51329  -0.51156  -0.50792  -0.50409  -0.50008
 Alpha  occ. eigenvalues --   -0.49754  -0.49538  -0.49278  -0.48211  -0.47026
 Alpha  occ. eigenvalues --   -0.44884  -0.43489  -0.42998  -0.41141  -0.37709
 Alpha virt. eigenvalues --   -0.00711   0.04089   0.06664   0.07753   0.11184
 Alpha virt. eigenvalues --    0.12155   0.12882   0.15992   0.16448   0.20280
 Alpha virt. eigenvalues --    0.21570   0.23507   0.24320   0.25021   0.25622
 Alpha virt. eigenvalues --    0.26589   0.27746   0.28895   0.29769   0.30588
 Alpha virt. eigenvalues --    0.31825   0.34619   0.34972   0.35501   0.38854
 Alpha virt. eigenvalues --    0.41573   0.45870   0.48666   0.50356   0.51238
 Alpha virt. eigenvalues --    0.52517   0.53254   0.54270   0.54821   0.56150
 Alpha virt. eigenvalues --    0.59442   0.59454   0.60994   0.61440   0.63016
 Alpha virt. eigenvalues --    0.66001   0.66166   0.67635   0.69565   0.70449
 Alpha virt. eigenvalues --    0.71984   0.73143   0.76144   0.79226   0.79824
 Alpha virt. eigenvalues --    0.83050   0.85818   0.89341   0.90800   0.92094
 Alpha virt. eigenvalues --    0.93206   0.94713   0.96002   0.98614   0.99808
 Alpha virt. eigenvalues --    0.99912   1.03778   1.04914   1.05824   1.07991
 Alpha virt. eigenvalues --    1.08498   1.10024   1.10807   1.12991   1.13850
 Alpha virt. eigenvalues --    1.14248   1.15692   1.17738   1.18133   1.18826
 Alpha virt. eigenvalues --    1.20985   1.23096   1.25125   1.25289   1.26333
 Alpha virt. eigenvalues --    1.27921   1.28324   1.28952   1.29522   1.30291
 Alpha virt. eigenvalues --    1.32426   1.33223   1.33306   1.35085   1.36034
 Alpha virt. eigenvalues --    1.36530   1.36610   1.37908   1.38885   1.39352
 Alpha virt. eigenvalues --    1.40312   1.40863   1.41374   1.41977   1.42213
 Alpha virt. eigenvalues --    1.42587   1.44205   1.44543   1.45487   1.46746
 Alpha virt. eigenvalues --    1.47956   1.49173   1.50148   1.51106   1.52754
 Alpha virt. eigenvalues --    1.54436   1.55619   1.55952   1.57255   1.59487
 Alpha virt. eigenvalues --    1.60259   1.60977   1.62766   1.63689   1.64440
 Alpha virt. eigenvalues --    1.66409   1.67544   1.68487   1.71244   1.71751
 Alpha virt. eigenvalues --    1.72576   1.73812   1.74474   1.75575   1.76876
 Alpha virt. eigenvalues --    1.77859   1.78158   1.79571   1.80546   1.81132
 Alpha virt. eigenvalues --    1.81582   1.83219   1.84398   1.84542   1.85688
 Alpha virt. eigenvalues --    1.86139   1.87297   1.88330   1.88976   1.89775
 Alpha virt. eigenvalues --    1.90811   1.92062   1.92766   1.93404   1.94233
 Alpha virt. eigenvalues --    1.96011   1.96255   1.97295   1.98659   2.00539
 Alpha virt. eigenvalues --    2.01803   2.02000   2.02586   2.03870   2.04077
 Alpha virt. eigenvalues --    2.04345   2.05290   2.05883   2.06388   2.06788
 Alpha virt. eigenvalues --    2.07326   2.07674   2.08933   2.09878   2.10371
 Alpha virt. eigenvalues --    2.11086   2.11423   2.12336   2.12535   2.16173
 Alpha virt. eigenvalues --    2.17156   2.18444   2.18843   2.20261   2.21862
 Alpha virt. eigenvalues --    2.24569   2.24734   2.26786   2.28119   2.28579
 Alpha virt. eigenvalues --    2.31476   2.32740   2.33616   2.34936   2.36796
 Alpha virt. eigenvalues --    2.37486   2.38287   2.38649   2.40277   2.42888
 Alpha virt. eigenvalues --    2.44004   2.44651   2.45264   2.50064   2.51503
 Alpha virt. eigenvalues --    2.51752   2.52679   2.57538   2.58032   2.58715
 Alpha virt. eigenvalues --    2.60670   2.65286   2.66603   2.67593   2.69272
 Alpha virt. eigenvalues --    2.70962   2.74140   2.75413   2.76398   2.77738
 Alpha virt. eigenvalues --    2.80264   2.81122   2.84088   2.86222   2.88473
 Alpha virt. eigenvalues --    2.88927   2.90571   2.91705   2.93115   2.94166
 Alpha virt. eigenvalues --    2.96221   2.97118   2.99656   3.02296   3.06599
 Alpha virt. eigenvalues --    3.07685   3.10211   3.10775   3.11505   3.13155
 Alpha virt. eigenvalues --    3.13329   3.17023   3.19122   3.22289   3.23690
 Alpha virt. eigenvalues --    3.25026   3.29757   3.31807   3.32669   3.35453
 Alpha virt. eigenvalues --    3.47530   3.94739   4.19113   4.27074   4.29824
 Alpha virt. eigenvalues --    4.37990   4.39324   4.47597   4.60995   4.67934
 Alpha virt. eigenvalues --    4.74397   4.78479   4.79217   4.88777   5.10134
 Alpha virt. eigenvalues --    5.18966   5.22989   5.32551   5.44416   5.62290
 Alpha virt. eigenvalues --    5.75620   5.93146   6.17104   6.84839   7.29730
          Condensed to atoms (all electrons):
               1          2          3          4          5          6
     1  F    9.126324   0.204588  -0.025315  -0.000643   0.010496   0.000002
     2  C    0.204588   5.657997   0.084234  -0.023972  -0.052878   0.002456
     3  C   -0.025315   0.084234   4.847154   0.237102   0.225897  -0.024480
     4  F   -0.000643  -0.023972   0.237102   9.110026  -0.014152  -0.000629
     5  C    0.010496  -0.052878   0.225897  -0.014152   4.188611   0.300944
     6  F    0.000002   0.002456  -0.024480  -0.000629   0.300944   9.050640
     7  F   -0.000804   0.007922  -0.042483   0.000299   0.286685  -0.039883
     8  F   -0.001388   0.000780  -0.031218  -0.000558   0.280503  -0.039897
     9  F    0.000351  -0.042715   0.229461  -0.038635  -0.014319  -0.000554
    10  C   -0.035026   0.115603  -0.030780   0.002468  -0.005435   0.000030
    11  O    0.000789  -0.022988  -0.002385  -0.000006   0.000141   0.000000
    12  C    0.001812  -0.087686  -0.002037  -0.001015  -0.000230   0.000000
    13  F   -0.000001   0.002569   0.000041   0.000000   0.000000   0.000000
    14  F   -0.000001  -0.003390   0.012648  -0.000186   0.000093   0.000000
    15  C   -0.008491   0.154444  -0.024547   0.001383   0.002289  -0.000024
    16  F   -0.001659  -0.036767   0.001996   0.000002  -0.000025   0.000000
    17  F   -0.000336  -0.036980   0.005787  -0.004201   0.000068   0.000000
    18  C    0.016763  -0.030566   0.002569  -0.000019   0.000457   0.000000
    19  F   -0.002986  -0.001267  -0.000832   0.000000   0.000798   0.000000
    20  C    0.000236   0.003991  -0.000112   0.000000  -0.000022   0.000000
    21  O    0.000000  -0.000150   0.000001   0.000000   0.000001   0.000000
    22  O    0.000000  -0.000047   0.000000   0.000000   0.000000   0.000000
    23  F   -0.001324   0.004450   0.000072   0.000000   0.000001   0.000000
    24  F    0.000352  -0.031298   0.010372   0.000004   0.000691  -0.000010
    25  H    0.000000   0.000011   0.000000   0.000000   0.000000   0.000000
               7          8          9         10         11         12
     1  F   -0.000804  -0.001388   0.000351  -0.035026   0.000789   0.001812
     2  C    0.007922   0.000780  -0.042715   0.115603  -0.022988  -0.087686
     3  C   -0.042483  -0.031218   0.229461  -0.030780  -0.002385  -0.002037
     4  F    0.000299  -0.000558  -0.038635   0.002468  -0.000006  -0.001015
     5  C    0.286685   0.280503  -0.014319  -0.005435   0.000141  -0.000230
     6  F   -0.039883  -0.039897  -0.000554   0.000030   0.000000   0.000000
     7  F    9.068482  -0.039794  -0.000145   0.005910   0.000001  -0.000007
     8  F   -0.039794   9.076797   0.000282  -0.000331   0.000000   0.000002
     9  F   -0.000145   0.000282   9.113165   0.015573  -0.001582   0.009226
    10  C    0.005910  -0.000331   0.015573   5.028836   0.149255  -0.003356
    11  O    0.000001   0.000000  -0.001582   0.149255   8.390841   0.176773
    12  C   -0.000007   0.000002   0.009226  -0.003356   0.176773   4.426728
    13  F    0.000000   0.000000   0.000000   0.000597  -0.040655   0.307775
    14  F    0.000000   0.000000  -0.008720   0.001578  -0.051123   0.272555
    15  C    0.000093  -0.000057  -0.001369  -0.059815  -0.031168   0.190284
    16  F    0.000000   0.000000  -0.000001   0.005590  -0.001307  -0.022036
    17  F    0.000000   0.000000  -0.000219   0.002302   0.000761  -0.023071
    18  C   -0.000646   0.000057   0.000135   0.215513  -0.034644   0.002672
    19  F    0.000063  -0.000016   0.000000  -0.021796   0.000639   0.000046
    20  C    0.000000   0.000000   0.000000  -0.063890  -0.000121   0.000065
    21  O    0.000000   0.000000   0.000000   0.002673  -0.000003  -0.000003
    22  O    0.000000   0.000000   0.000000   0.000131   0.000702   0.000131
    23  F    0.000000   0.000000   0.000000  -0.035377   0.000943   0.000486
    24  F   -0.007337  -0.000003  -0.004248   0.232933  -0.046826   0.000334
    25  H    0.000000   0.000000   0.000000  -0.000213  -0.000006   0.000000
              13         14         15         16         17         18
     1  F   -0.000001  -0.000001  -0.008491  -0.001659  -0.000336   0.016763
     2  C    0.002569  -0.003390   0.154444  -0.036767  -0.036980  -0.030566
     3  C    0.000041   0.012648  -0.024547   0.001996   0.005787   0.002569
     4  F    0.000000  -0.000186   0.001383   0.000002  -0.004201  -0.000019
     5  C    0.000000   0.000093   0.002289  -0.000025   0.000068   0.000457
     6  F    0.000000   0.000000  -0.000024   0.000000   0.000000   0.000000
     7  F    0.000000   0.000000   0.000093   0.000000   0.000000  -0.000646
     8  F    0.000000   0.000000  -0.000057   0.000000   0.000000   0.000057
     9  F    0.000000  -0.008720  -0.001369  -0.000001  -0.000219   0.000135
    10  C    0.000597   0.001578  -0.059815   0.005590   0.002302   0.215513
    11  O   -0.040655  -0.051123  -0.031168  -0.001307   0.000761  -0.034644
    12  C    0.307775   0.272555   0.190284  -0.022036  -0.023071   0.002672
    13  F    9.034811  -0.041349  -0.021494  -0.000512  -0.000170   0.000061
    14  F   -0.041349   9.086589  -0.030331   0.000340  -0.000023  -0.000005
    15  C   -0.021494  -0.030331   4.739901   0.257602   0.281484  -0.006821
    16  F   -0.000512   0.000340   0.257602   9.101898  -0.041727   0.002193
    17  F   -0.000170  -0.000023   0.281484  -0.041727   9.063456   0.000015
    18  C    0.000061  -0.000005  -0.006821   0.002193   0.000015   4.599981
    19  F    0.000000   0.000000   0.000122  -0.000010   0.000000   0.248994
    20  C   -0.000013  -0.000003   0.000200  -0.000059   0.000000   0.239310
    21  O    0.000000   0.000000   0.000001   0.000000   0.000000  -0.072447
    22  O    0.000000   0.000000  -0.000021   0.000001   0.000000  -0.051265
    23  F   -0.000010   0.000000   0.002316  -0.002605   0.000000   0.273934
    24  F   -0.000003  -0.000024   0.001535   0.000000  -0.000001  -0.034088
    25  H    0.000000   0.000000   0.000000   0.000000   0.000000   0.007604
              19         20         21         22         23         24
     1  F   -0.002986   0.000236   0.000000   0.000000  -0.001324   0.000352
     2  C   -0.001267   0.003991  -0.000150  -0.000047   0.004450  -0.031298
     3  C   -0.000832  -0.000112   0.000001   0.000000   0.000072   0.010372
     4  F    0.000000   0.000000   0.000000   0.000000   0.000000   0.000004
     5  C    0.000798  -0.000022   0.000001   0.000000   0.000001   0.000691
     6  F    0.000000   0.000000   0.000000   0.000000   0.000000  -0.000010
     7  F    0.000063   0.000000   0.000000   0.000000   0.000000  -0.007337
     8  F   -0.000016   0.000000   0.000000   0.000000   0.000000  -0.000003
     9  F    0.000000   0.000000   0.000000   0.000000   0.000000  -0.004248
    10  C   -0.021796  -0.063890   0.002673   0.000131  -0.035377   0.232933
    11  O    0.000639  -0.000121  -0.000003   0.000702   0.000943  -0.046826
    12  C    0.000046   0.000065  -0.000003   0.000131   0.000486   0.000334
    13  F    0.000000  -0.000013   0.000000   0.000000  -0.000010  -0.000003
    14  F    0.000000  -0.000003   0.000000   0.000000   0.000000  -0.000024
    15  C    0.000122   0.000200   0.000001  -0.000021   0.002316   0.001535
    16  F   -0.000010  -0.000059   0.000000   0.000001  -0.002605   0.000000
    17  F    0.000000   0.000000   0.000000   0.000000   0.000000  -0.000001
    18  C    0.248994   0.239310  -0.072447  -0.051265   0.273934  -0.034088
    19  F    9.112000  -0.028260   0.002363   0.000695  -0.039360  -0.000149
    20  C   -0.028260   4.534787   0.261024   0.559536  -0.028272   0.007702
    21  O    0.002363   0.261024   8.091372  -0.095652   0.000590  -0.000306
    22  O    0.000695   0.559536  -0.095652   8.017786  -0.001373  -0.000110
    23  F   -0.039360  -0.028272   0.000590  -0.001373   9.088734   0.000328
    24  F   -0.000149   0.007702  -0.000306  -0.000110   0.000328   9.143522
    25  H   -0.000114  -0.013052   0.282317   0.008955  -0.000042   0.000058
              25
     1  F    0.000000
     2  C    0.000011
     3  C    0.000000
     4  F    0.000000
     5  C    0.000000
     6  F    0.000000
     7  F    0.000000
     8  F    0.000000
     9  F    0.000000
    10  C   -0.000213
    11  O   -0.000006
    12  C    0.000000
    13  F    0.000000
    14  F    0.000000
    15  C    0.000000
    16  F    0.000000
    17  F    0.000000
    18  C    0.007604
    19  F   -0.000114
    20  C   -0.013052
    21  O    0.282317
    22  O    0.008955
    23  F   -0.000042
    24  F    0.000058
    25  H    0.353356
 Mulliken charges:
               1
     1  F   -0.283738
     2  C    0.131660
     3  C    0.526854
     4  F   -0.267267
     5  C    0.789385
     6  F   -0.248595
     7  F   -0.238357
     8  F   -0.245160
     9  F   -0.255685
    10  C    0.477026
    11  O   -0.488029
    12  C    0.750554
    13  F   -0.241646
    14  F   -0.238649
    15  C    0.552483
    16  F   -0.262915
    17  F   -0.247145
    18  C    0.620244
    19  F   -0.270930
    20  C    0.526954
    21  O   -0.471782
    22  O   -0.439468
    23  F   -0.263491
    24  F   -0.273429
    25  H    0.361126
 Sum of Mulliken charges =   0.00000
 Mulliken charges with hydrogens summed into heavy atoms:
               1
     1  F   -0.283738
     2  C    0.131660
     3  C    0.526854
     4  F   -0.267267
     5  C    0.789385
     6  F   -0.248595
     7  F   -0.238357
     8  F   -0.245160
     9  F   -0.255685
    10  C    0.477026
    11  O   -0.488029
    12  C    0.750554
    13  F   -0.241646
    14  F   -0.238649
    15  C    0.552483
    16  F   -0.262915
    17  F   -0.247145
    18  C    0.620244
    19  F   -0.270930
    20  C    0.526954
    21  O   -0.110656
    22  O   -0.439468
    23  F   -0.263491
    24  F   -0.273429
 Electronic spatial extent (au):  <R**2>=           5479.3512
 Charge=              0.0000 electrons
 Dipole moment (field-independent basis, Debye):
    X=             -0.4196    Y=             -1.3129    Z=              0.8010  Tot=              1.5942
 Quadrupole moment (field-independent basis, Debye-Ang):
   XX=           -126.2047   YY=           -122.3470   ZZ=           -126.2308
   XY=              9.3106   XZ=             -4.3512   YZ=             -2.1448
 Traceless Quadrupole moment (field-independent basis, Debye-Ang):
   XX=             -1.2772   YY=              2.5805   ZZ=             -1.3033
   XY=              9.3106   XZ=             -4.3512   YZ=             -2.1448
 Octapole moment (field-independent basis, Debye-Ang**2):
  XXX=            -41.6255  YYY=            -45.8017  ZZZ=             14.5620  XYY=            -38.9722
  XXY=            -48.1379  XXZ=             20.6687  XZZ=            -18.1019  YZZ=            -16.2208
  YYZ=              7.8828  XYZ=              8.5797
 Hexadecapole moment (field-independent basis, Debye-Ang**3):
 XXXX=          -2754.3292 YYYY=          -1911.4763 ZZZZ=           -935.1698 XXXY=             16.5724
 XXXZ=           -299.3978 YYYX=            -55.8293 YYYZ=             83.7520 ZZZX=           -228.5158
 ZZZY=            101.3655 XXYY=           -666.5998 XXZZ=           -590.1422 YYZZ=           -470.7075
 XXYZ=             -3.9664 YYXZ=            -98.1569 ZZXY=            -25.4443
 N-N= 2.870101282393D+03 E-N=-1.007029651505D+04  KE= 1.815896409959D+03
 No NMR shielding tensors so no spin-rotation constants.
 Leave Link  601 at Mon Feb  3 21:44:09 2025, MaxMem=  5368709120 cpu:         3.3
 (Enter /home/k0335/k033513/app/g09/l9999.exe)
 1\1\GINC-C15U05N1\SP\RCAM-B3LYP\6-31G(d,p)\C8H1F13O3\K033513\03-Feb-20
 25\0\\#p CAM-B3LYP/6-31G(d,p) SCRF=(PCM,Solvent=Generic,Read) NoSymm o
 ut=wfn\\Title A1_neu\\0,1\F,0,1.219555,-0.46969,-1.438345\C,0,0.779469
 ,0.332949,-0.433167\C,0,1.859349,0.388257,0.635317\F,0,2.873015,1.1995
 83,0.210166\C,0,2.45922,-0.988782,0.943508\F,0,3.387143,-0.910389,1.92
 795\F,0,1.537727,-1.892104,1.338213\F,0,3.081449,-1.514937,-0.138147\F
 ,0,1.383421,0.968605,1.76543\C,0,-0.588027,-0.090257,0.124421\O,0,-1.3
 53326,1.094617,0.425186\C,0,-0.573582,2.207188,-0.002239\F,0,-1.389548
 ,3.149855,-0.509243\F,0,0.009738,2.724478,1.096926\C,0,0.432513,1.6832
 24,-0.998645\F,0,-0.184363,1.508533,-2.201908\F,0,1.476877,2.492203,-1
 .231086\C,0,-1.350805,-1.040682,-0.812442\F,0,-0.566629,-2.129401,-1.0
 72131\C,0,-2.66978,-1.438875,-0.163976\O,0,-2.607324,-2.577909,0.56275
 7\O,0,-3.728862,-0.832062,-0.237334\F,0,-1.55137,-0.437054,-2.016656\F
 ,0,-0.418617,-0.7132,1.320078\H,0,-3.517242,-2.714148,0.905365\\Versio
 n=ES64L-G09RevD.01\HF=-1828.5101283\RMSD=4.722e-09\Dipole=-0.1650713,-
 0.5165499,0.3151391\Quadrupole=-0.9495447,1.9185112,-0.9689665,6.92218
 57,-3.2350027,-1.5946318\PG=C01 [X(C8H1F13O3)]\\@

 Writing a WFN file to "cytop/A1/A1_neu.wfn"


 A COMPUTER IS LIKE A HORSE, IT WILL SENSE WEAKNESS.
     -- GREG WETTSTEIN
 Job cpu time:       0 days  0 hours  6 minutes  6.1 seconds.
 File lengths (MBytes):  RWF=    134 Int=      0 D2E=      0 Chk=      6 Scr=      1
 Normal termination of Gaussian 09 at Mon Feb  3 21:44:10 2025.
