 Entering Gaussian System, Link 0=g09
 Initial command:
 /home/k0335/k033513/app/g09/l1.exe "/home/k0335/k033513/app/g09/scratch/Gau-558461.inp" -scrdir="/home/k0335/k033513/app/g09/scratch/"
 Default is to use a total of  36 processors:
                               36 via shared-memory
                                1 via Linda
 Entering Link 1 = /home/k0335/k033513/app/g09/l1.exe PID=    558462.
  
 Copyright (c) 1988,1990,1992,1993,1995,1998,2003,2009,2013,
            Gaussian, Inc.  All Rights Reserved.
  
 This is part of the Gaussian(R) 09 program.  It is based on
 the Gaussian(R) 03 system (copyright 2003, Gaussian, Inc.),
 the Gaussian(R) 98 system (copyright 1998, Gaussian, Inc.),
 the Gaussian(R) 94 system (copyright 1995, Gaussian, Inc.),
 the Gaussian 92(TM) system (copyright 1992, Gaussian, Inc.),
 the Gaussian 90(TM) system (copyright 1990, Gaussian, Inc.),
 the Gaussian 88(TM) system (copyright 1988, Gaussian, Inc.),
 the Gaussian 86(TM) system (copyright 1986, Carnegie Mellon
 University), and the Gaussian 82(TM) system (copyright 1983,
 Carnegie Mellon University). Gaussian is a federally registered
 trademark of Gaussian, Inc.
  
 This software contains proprietary and confidential information,
 including trade secrets, belonging to Gaussian, Inc.
  
 This software is provided under written license and may be
 used, copied, transmitted, or stored only in accord with that
 written license.
  
 The following legend is applicable only to US Government
 contracts under FAR:
  
                    RESTRICTED RIGHTS LEGEND
  
 Use, reproduction and disclosure by the US Government is
 subject to restrictions as set forth in subparagraphs (a)
 and (c) of the Commercial Computer Software - Restricted
 Rights clause in FAR 52.227-19.
  
 Gaussian, Inc.
 340 Quinnipiac St., Bldg. 40, Wallingford CT 06492
  
  
 ---------------------------------------------------------------
 Warning -- This program may not be used in any manner that
 competes with the business of Gaussian, Inc. or will provide
 assistance to any competitor of Gaussian, Inc.  The licensee
 of this program is prohibited from giving any competitor of
 Gaussian, Inc. access to this program.  By using this program,
 the user acknowledges that Gaussian, Inc. is engaged in the
 business of creating and licensing software in the field of
 computational chemistry and represents and warrants to the
 licensee that it is not a competitor of Gaussian, Inc. and that
 it will not use this program in any manner prohibited above.
 ---------------------------------------------------------------
  

 Cite this work as:
 Gaussian 09, Revision D.01,
 M. J. Frisch, G. W. Trucks, H. B. Schlegel, G. E. Scuseria, 
 M. A. Robb, J. R. Cheeseman, G. Scalmani, V. Barone, B. Mennucci, 
 G. A. Petersson, H. Nakatsuji, M. Caricato, X. Li, H. P. Hratchian, 
 A. F. Izmaylov, J. Bloino, G. Zheng, J. L. Sonnenberg, M. Hada, 
 M. Ehara, K. Toyota, R. Fukuda, J. Hasegawa, M. Ishida, T. Nakajima, 
 Y. Honda, O. Kitao, H. Nakai, T. Vreven, J. A. Montgomery, Jr., 
 J. E. Peralta, F. Ogliaro, M. Bearpark, J. J. Heyd, E. Brothers, 
 K. N. Kudin, V. N. Staroverov, T. Keith, R. Kobayashi, J. Normand, 
 K. Raghavachari, A. Rendell, J. C. Burant, S. S. Iyengar, J. Tomasi, 
 M. Cossi, N. Rega, J. M. Millam, M. Klene, J. E. Knox, J. B. Cross, 
 V. Bakken, C. Adamo, J. Jaramillo, R. Gomperts, R. E. Stratmann, 
 O. Yazyev, A. J. Austin, R. Cammi, C. Pomelli, J. W. Ochterski, 
 R. L. Martin, K. Morokuma, V. G. Zakrzewski, G. A. Voth, 
 P. Salvador, J. J. Dannenberg, S. Dapprich, A. D. Daniels, 
 O. Farkas, J. B. Foresman, J. V. Ortiz, J. Cioslowski, 
 and D. J. Fox, Gaussian, Inc., Wallingford CT, 2013.
 
 ******************************************
 Gaussian 09:  ES64L-G09RevD.01 24-Apr-2013
                 3-Mar-2024 
 ******************************************
 %nprocshared=24
 Will use up to   24 processors via shared memory.
 %mem=40GB
 %rwf=A1303169711/A1303169711_0.rwf
 %nosave
 %chk=A1303169711/A1303169711_0.chk
 ----------------------------------------------------------------------
 #p CAM-B3LYP/6-31G(d,p) SCRF=(PCM,Solvent=Generic,Read) NoSymm out=wfn
 ----------------------------------------------------------------------
 1/38=1,40=2/1;
 2/12=2,15=1,17=6,18=5,40=1/2;
 3/5=1,6=6,7=101,11=2,16=1,25=1,30=1,70=2203,72=-2,74=-40/1,2,3;
 4//1;
 5/5=2,38=5/2;
 6/7=2,8=2,9=2,10=2,28=1/1;
 99/5=1,6=100,9=1/99;
 Leave Link    1 at Sun Mar  3 18:24:03 2024, MaxMem=  5368709120 cpu:         1.2
 (Enter /home/k0335/k033513/app/g09/l101.exe)
 -------------------
 Title A1303169711_0
 -------------------
 Symbolic Z-matrix:
 Charge =  0 Multiplicity = 1
 C                     1.50739   4.15239  -1.88699 
 C                     0.16487   4.23235  -1.17788 
 C                     0.14619   3.54562   0.19062 
 N                     0.15101   2.08385   0.13991 
 C                     1.40226   1.39077   0.08255 
 N                     1.26808   0.0785    0.63116 
 C                     2.44691  -0.55805   1.20868 
 F                     3.43305   0.39214   1.27646 
 F                     2.15988  -0.82038   2.51823 
 C                     3.07943  -1.82737   0.55881 
 F                     4.30667  -2.00843   1.15421 
 O                     2.34193  -2.99896   0.89448 
 C                     2.70673  -4.11957   0.14154 
 F                     2.22709  -3.99242  -1.10741 
 F                     2.17383  -5.21985   0.7024 
 F                     4.04258  -4.25545   0.10337 
 C                     3.29755  -1.48043  -0.91661 
 F                     3.94466  -0.29938  -1.06966 
 F                     4.03421  -2.40822  -1.56611 
 F                     2.12842  -1.361    -1.58854 
 C                     0.13617  -0.64117   0.36518 
 O                     0.06536  -1.82816   0.65741 
 N                    -0.89444   0.03651  -0.24413 
 C                    -2.07345  -0.72757  -0.6101 
 F                    -2.79998  -0.04618  -1.5495 
 F                    -1.6243   -1.81582  -1.32699 
 C                    -3.04145  -1.25818   0.48537 
 F                    -2.35874  -2.04765   1.36433 
 O                    -3.97928  -2.1298   -0.17719 
 C                    -5.0053   -2.59327   0.65738 
 F                    -5.94952  -1.64279   0.76102 
 F                    -5.55785  -3.68313   0.09178 
 F                    -4.54596  -2.92321   1.87392 
 C                    -3.64495  -0.07434   1.24157 
 F                    -4.38678   0.72128   0.44633 
 F                    -4.45908  -0.4874    2.24457 
 F                    -2.69311   0.67759   1.8402 
 C                    -1.00419   1.40669  -0.18361 
 O                    -2.06765   1.99604  -0.35494 
 H                     1.5008    4.79529  -2.77331 
 H                     1.72247   3.13595  -2.22481 
 H                     2.32092   4.48457  -1.23466 
 H                    -0.07359   5.29239  -1.02774 
 H                    -0.61398   3.82119  -1.82972 
 H                    -0.77312   3.84924   0.70704 
 H                     0.97963   3.8853    0.81593 
 H                     2.13295   1.96928   0.65402 
 H                     1.72568   1.30125  -0.95853 
 
 NAtoms=     48 NQM=       48 NQMF=       0 NMMI=      0 NMMIF=      0
                NMic=       0 NMicF=      0.
                    Isotopes and Nuclear Properties:
 (Nuclear quadrupole moments (NQMom) in fm**2, nuclear magnetic moments (NMagM)
  in nuclear magnetons)

  Atom         1           2           3           4           5           6           7           8           9          10
 IAtWgt=          12          12          12          14          12          14          12          19          19          12
 AtmWgt=  12.0000000  12.0000000  12.0000000  14.0030740  12.0000000  14.0030740  12.0000000  18.9984033  18.9984033  12.0000000
 NucSpn=           0           0           0           2           0           2           0           1           1           0
 AtZEff=   0.0000000   0.0000000   0.0000000   0.0000000   0.0000000   0.0000000   0.0000000   0.0000000   0.0000000   0.0000000
 NQMom=    0.0000000   0.0000000   0.0000000   2.0440000   0.0000000   2.0440000   0.0000000   0.0000000   0.0000000   0.0000000
 NMagM=    0.0000000   0.0000000   0.0000000   0.4037610   0.0000000   0.4037610   0.0000000   2.6288670   2.6288670   0.0000000
 AtZNuc=   6.0000000   6.0000000   6.0000000   7.0000000   6.0000000   7.0000000   6.0000000   9.0000000   9.0000000   6.0000000

  Atom        11          12          13          14          15          16          17          18          19          20
 IAtWgt=          19          16          12          19          19          19          12          19          19          19
 AtmWgt=  18.9984033  15.9949146  12.0000000  18.9984033  18.9984033  18.9984033  12.0000000  18.9984033  18.9984033  18.9984033
 NucSpn=           1           0           0           1           1           1           0           1           1           1
 AtZEff=   0.0000000   0.0000000   0.0000000   0.0000000   0.0000000   0.0000000   0.0000000   0.0000000   0.0000000   0.0000000
 NQMom=    0.0000000   0.0000000   0.0000000   0.0000000   0.0000000   0.0000000   0.0000000   0.0000000   0.0000000   0.0000000
 NMagM=    2.6288670   0.0000000   0.0000000   2.6288670   2.6288670   2.6288670   0.0000000   2.6288670   2.6288670   2.6288670
 AtZNuc=   9.0000000   8.0000000   6.0000000   9.0000000   9.0000000   9.0000000   6.0000000   9.0000000   9.0000000   9.0000000

  Atom        21          22          23          24          25          26          27          28          29          30
 IAtWgt=          12          16          14          12          19          19          12          19          16          12
 AtmWgt=  12.0000000  15.9949146  14.0030740  12.0000000  18.9984033  18.9984033  12.0000000  18.9984033  15.9949146  12.0000000
 NucSpn=           0           0           2           0           1           1           0           1           0           0
 AtZEff=   0.0000000   0.0000000   0.0000000   0.0000000   0.0000000   0.0000000   0.0000000   0.0000000   0.0000000   0.0000000
 NQMom=    0.0000000   0.0000000   2.0440000   0.0000000   0.0000000   0.0000000   0.0000000   0.0000000   0.0000000   0.0000000
 NMagM=    0.0000000   0.0000000   0.4037610   0.0000000   2.6288670   2.6288670   0.0000000   2.6288670   0.0000000   0.0000000
 AtZNuc=   6.0000000   8.0000000   7.0000000   6.0000000   9.0000000   9.0000000   6.0000000   9.0000000   8.0000000   6.0000000

  Atom        31          32          33          34          35          36          37          38          39          40
 IAtWgt=          19          19          19          12          19          19          19          12          16           1
 AtmWgt=  18.9984033  18.9984033  18.9984033  12.0000000  18.9984033  18.9984033  18.9984033  12.0000000  15.9949146   1.0078250
 NucSpn=           1           1           1           0           1           1           1           0           0           1
 AtZEff=   0.0000000   0.0000000   0.0000000   0.0000000   0.0000000   0.0000000   0.0000000   0.0000000   0.0000000   0.0000000
 NQMom=    0.0000000   0.0000000   0.0000000   0.0000000   0.0000000   0.0000000   0.0000000   0.0000000   0.0000000   0.0000000
 NMagM=    2.6288670   2.6288670   2.6288670   0.0000000   2.6288670   2.6288670   2.6288670   0.0000000   0.0000000   2.7928460
 AtZNuc=   9.0000000   9.0000000   9.0000000   6.0000000   9.0000000   9.0000000   9.0000000   6.0000000   8.0000000   1.0000000

  Atom        41          42          43          44          45          46          47          48
 IAtWgt=           1           1           1           1           1           1           1           1
 AtmWgt=   1.0078250   1.0078250   1.0078250   1.0078250   1.0078250   1.0078250   1.0078250   1.0078250
 NucSpn=           1           1           1           1           1           1           1           1
 AtZEff=   0.0000000   0.0000000   0.0000000   0.0000000   0.0000000   0.0000000   0.0000000   0.0000000
 NQMom=    0.0000000   0.0000000   0.0000000   0.0000000   0.0000000   0.0000000   0.0000000   0.0000000
 NMagM=    2.7928460   2.7928460   2.7928460   2.7928460   2.7928460   2.7928460   2.7928460   2.7928460
 AtZNuc=   1.0000000   1.0000000   1.0000000   1.0000000   1.0000000   1.0000000   1.0000000   1.0000000
 Leave Link  101 at Sun Mar  3 18:24:04 2024, MaxMem=  5368709120 cpu:         1.1
 (Enter /home/k0335/k033513/app/g09/l202.exe)
                          Input orientation:                          
 ---------------------------------------------------------------------
 Center     Atomic      Atomic             Coordinates (Angstroms)
 Number     Number       Type             X           Y           Z
 ---------------------------------------------------------------------
      1          6           0        1.507388    4.152387   -1.886993
      2          6           0        0.164865    4.232348   -1.177876
      3          6           0        0.146189    3.545615    0.190617
      4          7           0        0.151009    2.083853    0.139908
      5          6           0        1.402261    1.390770    0.082548
      6          7           0        1.268083    0.078497    0.631161
      7          6           0        2.446914   -0.558049    1.208683
      8          9           0        3.433051    0.392139    1.276455
      9          9           0        2.159876   -0.820378    2.518233
     10          6           0        3.079426   -1.827369    0.558810
     11          9           0        4.306667   -2.008435    1.154205
     12          8           0        2.341930   -2.998961    0.894475
     13          6           0        2.706729   -4.119567    0.141537
     14          9           0        2.227094   -3.992417   -1.107406
     15          9           0        2.173830   -5.219853    0.702395
     16          9           0        4.042579   -4.255450    0.103365
     17          6           0        3.297549   -1.480426   -0.916612
     18          9           0        3.944663   -0.299384   -1.069657
     19          9           0        4.034207   -2.408219   -1.566109
     20          9           0        2.128420   -1.360996   -1.588542
     21          6           0        0.136173   -0.641167    0.365176
     22          8           0        0.065358   -1.828160    0.657409
     23          7           0       -0.894441    0.036511   -0.244134
     24          6           0       -2.073452   -0.727571   -0.610095
     25          9           0       -2.799977   -0.046179   -1.549504
     26          9           0       -1.624295   -1.815821   -1.326992
     27          6           0       -3.041446   -1.258180    0.485369
     28          9           0       -2.358741   -2.047651    1.364329
     29          8           0       -3.979284   -2.129803   -0.177191
     30          6           0       -5.005296   -2.593274    0.657383
     31          9           0       -5.949517   -1.642787    0.761019
     32          9           0       -5.557855   -3.683134    0.091780
     33          9           0       -4.545955   -2.923214    1.873922
     34          6           0       -3.644949   -0.074343    1.241570
     35          9           0       -4.386782    0.721279    0.446325
     36          9           0       -4.459084   -0.487399    2.244571
     37          9           0       -2.693111    0.677591    1.840198
     38          6           0       -1.004194    1.406687   -0.183606
     39          8           0       -2.067653    1.996043   -0.354940
     40          1           0        1.500803    4.795291   -2.773312
     41          1           0        1.722474    3.135950   -2.224807
     42          1           0        2.320921    4.484571   -1.234663
     43          1           0       -0.073589    5.292394   -1.027744
     44          1           0       -0.613979    3.821191   -1.829715
     45          1           0       -0.773115    3.849242    0.707039
     46          1           0        0.979633    3.885298    0.815931
     47          1           0        2.132947    1.969280    0.654017
     48          1           0        1.725675    1.301246   -0.958531
 ---------------------------------------------------------------------
                    Distance matrix (angstroms):
                    1          2          3          4          5
     1  C    0.000000
     2  C    1.520398   0.000000
     3  C    2.556853   1.531249   0.000000
     4  N    3.197956   2.520472   1.462649   0.000000
     5  C    3.393622   3.345801   2.496548   1.431533   0.000000
     6  N    4.795305   4.663066   3.670645   2.347474   1.428650
     7  C    5.714379   5.818188   4.813507   3.659659   2.481406
     8  F    5.277788   5.608207   4.682619   3.863345   2.558669
     9  F    6.675339   6.570489   5.341781   4.257527   3.375754
    10  C    6.649116   6.944848   6.132569   4.903954   3.660072
    11  F    7.418934   7.844775   7.006108   5.919891   4.597675
    12  O    7.718472   7.831097   6.938888   5.586099   4.562011
    13  C    8.601080   8.829293   8.081695   6.709257   5.662944
    14  F    8.213621   8.479653   7.926976   6.541176   5.574499
    15  F    9.746177   9.844565   9.011475   7.599495   6.684300
    16  F    9.004468   9.419180   8.720441   7.438576   6.233098
    17  C    5.989566   6.520564   6.034742   4.870424   3.582486
    18  F    5.140682   5.902133   5.549839   4.640547   3.263128
    19  F    7.037708   7.695431   7.324678   6.178061   4.906886
    20  F    5.556271   5.942196   5.582963   4.331822   3.300313
    21  C    5.470892   5.112043   4.190431   2.734355   2.410731
    22  O    6.657355   6.333082   5.394616   3.947023   3.532603
    23  N    5.040655   4.427082   3.685883   2.330679   2.686183
    24  C    6.186022   5.471127   4.881400   3.662627   4.128887
    25  F    6.024554   5.218639   4.960736   4.012414   4.731514
    26  F    6.763176   6.309016   5.846601   4.528902   4.629154
    27  C    7.456154   6.572116   5.772724   4.634684   5.189001
    28  F    7.997407   7.229784   6.239944   4.986720   5.254602
    29  O    8.514276   7.658479   7.026036   5.908872   6.436064
    30  C    9.715598   8.757160   8.027554   6.980743   7.567022
    31  F    9.808233   8.698402   8.025117   7.175656   7.981944
    32  F   10.734458   9.849691   9.208729   8.114899   8.613234
    33  F   10.042488   9.094359   8.166730   7.080889   7.563118
    34  C    7.362047   6.238268   5.346151   4.503417   5.381841
    35  F    7.208198   5.973535   5.346970   4.747847   5.838970
    36  F    8.613723   7.441106   6.456971   5.682772   6.523590
    37  F    6.603813   5.469286   4.359851   3.599664   4.513317
    38  C    4.092486   3.215530   2.457323   1.377574   2.421181
    39  O    4.447238   3.265336   2.756792   2.274873   3.549374
    40  H    1.094957   2.155702   3.490207   4.202462   4.444818
    41  H    1.092485   2.173545   2.913207   3.027918   2.910683
    42  H    1.094402   2.171501   2.764511   3.515880   3.485769
    43  H    2.130120   1.096858   2.141014   3.421782   4.316660
    44  H    2.147829   1.095693   2.176129   2.735501   3.691737
    45  H    3.467217   2.139972   1.097270   2.071772   3.341607
    46  H    2.766886   2.181641   1.095916   2.094953   2.634224
    47  H    3.407934   3.514350   2.578135   2.050735   1.093230
    48  H    3.006442   3.328002   2.975317   2.073310   1.093827
                    6          7          8          9         10
     6  N    0.000000
     7  C    1.458892   0.000000
     8  F    2.280759   1.371100   0.000000
     9  F    2.272512   1.366063   2.152483   0.000000
    10  C    2.630309   1.559993   2.359297   2.387246   0.000000
    11  F    3.723151   2.359082   2.557519   2.807270   1.376009
    12  O    3.270050   2.463290   3.582738   2.723226   1.424500
    13  C    4.464658   3.727025   4.708617   4.102728   2.359490
    14  F    4.529311   4.148189   5.134341   4.817843   2.861849
    15  F    5.375683   4.697161   5.780107   4.759500   3.514210
    16  F    5.172958   4.175961   4.831951   4.601726   2.651541
    17  C    2.990748   2.468043   2.886937   3.678060   1.531280
    18  F    3.193690   2.738794   2.498838   4.041021   2.394844
    19  F    4.320092   3.693521   4.035290   4.766152   2.400890
    20  F    2.781978   2.927564   3.603297   4.142325   2.394376
    21  C    1.367437   2.461288   3.573172   2.960261   3.179199
    22  O    2.254457   2.754795   4.080968   2.977465   3.015680
    23  N    2.333327   3.691725   4.600636   4.206398   4.462106
    24  C    3.654630   4.875490   5.927427   5.264610   5.397041
    25  F    4.617354   5.949746   6.857755   6.461115   6.494998
    26  F    3.973494   4.958466   6.101620   5.486038   5.067679
    27  C    4.514421   5.579916   6.728186   5.601603   6.147719
    28  F    4.267539   5.033633   6.285312   4.822405   5.501913
    29  O    5.750207   6.759222   7.963416   6.831485   7.103418
    30  C    6.818675   7.744773   8.972271   7.612202   8.121518
    31  F    7.421148   8.478037   9.614530   8.338250   9.033093
    32  F    7.812441   8.665446   9.942218   8.581749   8.846728
    33  F    6.660162   7.411934   8.661009   7.057282   7.815167
    34  C    4.953165   6.111125   7.093441   5.990194   6.982584
    35  F    5.694281   6.994088   7.870657   7.037630   7.890027
    36  F    5.976937   6.983614   7.999789   6.632978   7.840054
    37  F    4.184703   5.324047   6.158665   5.123976   6.421757
    38  C    2.755209   4.208183   4.780191   4.719226   5.261773
    39  O    3.971966   5.417529   5.957491   5.836039   6.476561
    40  H    5.821747   6.738669   6.286648   7.744066   7.579889
    41  H    4.208449   5.095027   4.765859   6.191953   5.850160
    42  H    4.899312   5.604804   4.928544   6.500204   6.605487
    43  H    5.633540   6.751461   6.451229   7.411363   7.946677
    44  H    4.858583   6.146436   6.146962   6.938522   7.159087
    45  H    4.288445   5.481282   5.474270   5.804155   6.862066
    46  H    3.822182   4.695796   4.293425   5.141419   6.091782
    47  H    2.079320   2.606458   2.136603   3.355327   3.914004
    48  H    2.057092   2.945162   2.955803   4.096060   3.731380
                   11         12         13         14         15
    11  F    0.000000
    12  O    2.215580   0.000000
    13  C    2.835873   1.398482   0.000000
    14  F    3.657279   2.237782   1.343903   0.000000
    15  F    3.881537   2.235512   1.345055   2.187422   0.000000
    16  F    2.494611   2.257615   1.343286   2.197985   2.186580
    17  C    2.363344   2.549351   2.904103   2.737220   4.226966
    18  F    2.827979   3.703280   4.194433   4.073078   5.521506
    19  F    2.763000   3.044216   2.758073   2.446579   4.063545
    20  F    3.561825   2.982262   3.307163   2.676865   4.487898
    21  C    4.459261   3.271806   4.330940   4.215605   5.022960
    22  O    4.274109   2.570944   3.534616   3.531527   3.993903
    23  N    5.760962   4.580897   5.512726   5.169282   6.159510
    24  C    6.742350   5.188308   5.909375   5.422290   6.320018
    25  F    7.852699   6.413358   7.055205   6.406223   7.521749
    26  F    6.431932   4.697412   5.120702   4.429332   5.489226
    27  C    7.416535   5.672603   6.430184   6.145771   6.552943
    28  F    6.668835   4.818927   5.607766   5.560708   5.571824
    29  O    8.393112   6.470058   6.983088   6.546278   6.941390
    30  C    9.343528   7.362236   7.878515   7.574929   7.644658
    31  F   10.270229   8.402685   9.024898   8.710266   8.876238
    32  F   10.061916   7.969882   8.276249   7.882838   7.906536
    33  F    8.928815   6.957587   7.552075   7.477012   7.197398
    34  C    8.183920   6.672075   7.610369   7.439750   7.786217
    35  F    9.139392   7.701726   8.593287   8.269000   8.854618
    36  F    8.963305   7.374584   8.304473   8.259896   8.292766
    37  F    7.528759   6.305796   7.420003   7.396334   7.730560
    38  C    6.454304   5.636359   6.664544   6.359635   7.402423
    39  O    7.677585   6.779050   7.774439   7.407612   8.436663
    40  H    8.341999   8.655086   9.456495   8.973659  10.622458
    41  H    6.675363   6.910194   7.694860   7.233038   8.865195
    42  H    7.197847   7.780548   8.722039   8.478462   9.896953
    43  H    8.789178   8.847385   9.883440   9.565940  10.888141
    44  H    8.191525   7.916633   8.829982   8.345412   9.794077
    45  H    7.766371   7.525724   8.713841   8.589824   9.535879
    46  H    6.776406   7.018194   8.216784   8.204497   9.183832
    47  H    4.560424   4.978445   6.137257   6.217178   7.189412
    48  H    4.698847   4.722836   5.617636   5.319441   6.744201
                   16         17         18         19         20
    16  F    0.000000
    17  C    3.048964   0.000000
    18  F    4.127472   1.355374   0.000000
    19  F    2.489875   1.351041   2.168333   0.000000
    20  F    3.860624   1.353742   2.166795   2.174673   0.000000
    21  C    5.328376   3.513066   4.084135   4.695424   2.881704
    22  O    4.692226   3.611858   4.513194   4.586095   3.085249
    23  N    6.551019   4.508448   4.920492   5.658259   3.591399
    24  C    7.096534   5.432163   6.050806   6.406406   4.360541
    25  F    8.201860   6.295827   6.766427   7.230877   5.100918
    26  F    6.333338   4.950298   5.777464   5.694450   3.789214
    27  C    7.701491   6.495983   7.221019   7.456274   5.571283
    28  F    6.887765   6.125198   6.979515   7.041822   5.415308
    29  O    8.303455   7.343074   8.181434   8.137730   6.315617
    30  C    9.215954   8.523680   9.399275   9.310788   7.579749
    31  F   10.348937   9.399417  10.151399  10.279891   8.417417
    32  F    9.617485   9.180793  10.153647   9.817416   8.203330
    33  F    8.869760   8.449217   9.361610   9.258413   7.679614
    34  C    8.824696   7.404937   7.936915   8.502910   6.557194
    35  F    9.794875   8.108887   8.529533   9.206340   7.136134
    36  F    9.542602   8.434722   9.035620   9.505095   7.671449
    37  F    8.527661   6.938663   7.313124   8.147512   6.257736
    38  C    7.590261   5.232372   5.309138   6.469181   4.409896
    39  O    8.753636   6.417687   6.475164   7.622149   5.513485
    40  H    9.831165   6.786771   5.901746   7.730849   6.300591
    41  H    8.089256   5.050066   4.251355   6.042831   4.559841
    42  H    9.007907   6.052780   5.054700   7.110257   5.859432
    43  H   10.458660   7.566242   6.885934   8.744328   7.030714
    44  H    9.521159   6.651387   6.191772   7.776932   5.868047
    45  H    9.446765   6.900138   6.528796   8.211782   6.390241
    46  H    8.727037   6.096346   5.464285   7.390054   5.884284
    47  H    6.534308   3.965305   3.376419   5.263672   4.014951
    48  H    6.113308   3.195347   2.738297   4.411190   2.765258
                   21         22         23         24         25
    21  C    0.000000
    22  O    1.224487   0.000000
    23  N    1.375744   2.282760   0.000000
    24  C    2.416829   2.718891   1.451832   0.000000
    25  F    3.555417   4.031881   2.311254   1.369169   0.000000
    26  F    2.709703   2.606324   2.266363   1.378394   2.136205
    27  C    3.239200   3.163338   2.611136   1.555185   2.380748
    28  F    3.033331   2.534594   3.012484   2.392144   3.562443
    29  O    4.409896   4.140854   3.770100   2.405381   2.759619
    30  C    5.507341   5.128053   4.962623   3.699062   4.027589
    31  F    6.180255   6.018623   5.420717   4.212061   4.219867
    32  F    6.461444   5.948226   5.974615   4.622666   4.850479
    33  F    5.422765   4.893185   5.155549   4.135754   4.800585
    34  C    3.922530   4.145298   3.128082   2.514950   2.916310
    35  F    4.724401   5.134759   3.625202   2.926890   2.662757
    36  F    4.967108   4.978684   4.378906   3.728008   4.164411
    37  F    3.452486   3.909850   2.826772   2.891780   3.467758
    38  C    2.407344   3.509342   1.375897   2.424925   2.683530
    39  O    3.511452   4.494343   2.286585   2.735546   2.476682
    40  H    6.423971   7.596081   5.897450   6.925086   6.590466
    41  H    4.846749   5.974579   4.514181   5.651827   5.570865
    42  H    5.797051   6.965492   5.577180   6.845949   6.844736
    43  H    6.098473   7.318561   5.377002   6.357190   6.017124
    44  H    5.029206   6.209867   4.112971   4.930392   4.451253
    45  H    4.594284   5.739198   3.931459   4.936895   4.937050
    46  H    4.626391   5.788318   4.410108   5.712568   5.944514
    47  H    3.299238   4.323828   3.702344   5.154103   5.766396
    48  H    2.837549   3.893725   2.995818   4.320980   4.758816
                   26         27         28         29         30
    26  F    0.000000
    27  C    2.367263   0.000000
    28  F    2.799351   1.364522   0.000000
    29  O    2.639432   1.441615   2.238123   0.000000
    30  C    3.996667   2.380918   2.793158   1.401435   0.000000
    31  F    4.805963   2.946317   3.663546   2.235898   1.343771
    32  F    4.579592   3.516764   3.811629   2.230935   1.346485
    33  F    4.473060   2.638933   2.410436   2.271053   1.341574
    34  C    3.703147   1.528897   2.358674   2.519837   2.921786
    35  F    4.148839   2.393682   3.552838   2.946777   3.378367
    36  F    4.749400   2.387172   2.760553   2.965237   2.692995
    37  F    4.170199   2.388328   2.786611   3.688572   4.176579
    38  C    3.475114   3.420444   4.020367   4.621468   5.719770
    39  O    3.958757   3.499194   4.403644   4.550663   5.542236
    40  H    7.454185   8.239875   8.879302   9.204788  10.425444
    41  H    6.043755   7.024839   7.510521   8.026888   9.294833
    42  H    7.434258   8.043176   8.445349   9.195693  10.360945
    43  H    7.281549   7.348994   8.051099   8.430119   9.452256
    44  H    5.748858   6.087053   6.905753   7.033523   8.161782
    45  H    6.079040   5.592872   6.141627   6.841810   7.708426
    46  H    6.623845   6.537103   6.829741   7.858663   8.821361
    47  H    5.689310   6.100761   6.067581   7.406265   8.471802
    48  H    4.590661   5.600085   5.770030   6.702921   7.942571
                   31         32         33         34         35
    31  F    0.000000
    32  F    2.182727   0.000000
    33  F    2.201825   2.185738   0.000000
    34  C    2.828777   4.243183   3.054136   0.000000
    35  F    2.851312   4.571211   3.917359   1.347496   0.000000
    36  F    2.399425   4.006810   2.465385   1.356260   2.167907
    37  F    4.141613   5.502694   4.049687   1.352685   2.193926
    38  C    5.886241   6.835053   5.960330   3.346366   3.508347
    39  O    5.436480   6.680877   5.942129   3.053392   2.765033
    40  H   10.461721  11.398118  10.850594   8.143180   7.850305
    41  H    9.518977  10.240589   9.633600   7.150593   7.091445
    42  H   10.484627  11.425671  10.568470   7.906139   7.872825
    43  H    9.264067  10.577836   9.793770   6.834198   6.455355
    44  H    8.064423   9.189611   8.640854   5.813326   5.387379
    45  H    7.547214   8.944773   7.839777   4.891592   4.786514
    46  H    8.864303  10.027178   8.832174   6.103006   6.240676
    47  H    8.853514   9.561084   8.368536   6.156760   6.641348
    48  H    8.398378   8.888026   8.074788   5.964586   6.298580
                   36         37         38         39         40
    36  F    0.000000
    37  F    2.153922   0.000000
    38  C    4.628161   2.734923   0.000000
    39  O    4.317856   2.635933   1.227860   0.000000
    40  H    9.413088   7.471870   4.946132   5.139863   0.000000
    41  H    8.444860   6.485768   3.819891   4.377311   1.761649
    42  H    9.099122   7.006310   4.651288   5.121159   1.771040
    43  H    7.959059   6.031865   4.083787   3.910868   2.402671
    44  H    7.067431   5.260539   2.948181   2.760307   2.512280
    45  H    5.895492   3.876829   2.610119   2.497594   4.263632
    46  H    7.123281   4.982726   3.328386   3.771760   3.739301
    47  H    7.212490   5.134815   3.295418   4.320156   4.486929
    48  H    7.190991   5.267590   2.839685   3.903383   3.943647
                   41         42         43         44         45
    41  H    0.000000
    42  H    1.776880   0.000000
    43  H    3.051074   2.535561   0.000000
    44  H    2.466711   3.067213   1.760573   0.000000
    45  H    3.915670   3.707682   2.362519   2.541895   0.000000
    46  H    3.218606   2.522522   2.547221   3.089199   1.756497
    47  H    3.133247   3.151053   4.328996   4.140544   3.461541
    48  H    2.229261   3.250250   4.378516   3.547262   3.938319
                   46         47         48
    46  H    0.000000
    47  H    2.242203   0.000000
    48  H    3.222207   1.792331   0.000000
 Symmetry turned off by external request.
 Stoichiometry    C14H9F18N3O4
 Framework group  C1[X(C14H9F18N3O4)]
 Deg. of freedom   138
 Full point group                 C1      NOp   1
 Rotational constants (GHZ):      0.1344128      0.0718731      0.0543570
 Leave Link  202 at Sun Mar  3 18:24:04 2024, MaxMem=  5368709120 cpu:         0.1
 (Enter /home/k0335/k033513/app/g09/l301.exe)
 Standard basis: 6-31G(d,p) (6D, 7F)
 Ernie: Thresh=  0.10000D-02 Tol=  0.10000D-05 Strict=F.
   630 basis functions,  1155 primitive gaussians,   630 cartesian basis functions
   154 alpha electrons      154 beta electrons
       nuclear repulsion energy      5929.6879419721 Hartrees.
 IExCor=20419 DFT=T Ex+Corr=CAM-B3LYP ExCW=0 ScaHFX=  1.000000
 ScaDFX=  1.000000  1.000000  1.000000  0.810000 ScalE2=  1.000000  1.000000
 IRadAn=      0 IRanWt=     -1 IRanGd=            0 ICorTp=0 IEmpDi=  4
  HFx wShort=  0.000000 wLong=  0.330000 cFull=  0.190000 cShort=  0.000000 cLong=  0.460000
  DFx wShort=  0.000000 wLong=  0.330000 cFull=  0.190000 cShort=  0.000000 cLong=  0.460000
 NAtoms=   48 NActive=   48 NUniq=   48 SFac= 1.00D+00 NAtFMM=   60 NAOKFM=F Big=F
 Integral buffers will be    131072 words long.
 Raffenetti 2 integral format.
 Two-electron integral symmetry is turned off.
 Using the following non-standard input for PCM:
 eps=4.9
 --- end of non-standard input.
 ------------------------------------------------------------------------------
 Polarizable Continuum Model (PCM)
 =================================
 Model                : PCM (using non-symmetric T matrix).
 Atomic radii         : UFF (Universal Force Field).
 Polarization charges : Total charges.
 Charge compensation  : None.
 Solution method      : On-the-fly selection.
 Cavity type          : Scaled VdW (van der Waals Surface) (Alpha=1.100).
 Cavity algorithm     : GePol (No added spheres)
                        Default sphere list used, NSphG=   48.
                        Lebedev-Laikov grids with approx.  5.0 points / Ang**2.
                        Smoothing algorithm: Karplus/York (Gamma=1.0000).
                        Polarization charges: spherical gaussians, with
                                              point-specific exponents (IZeta= 3).
                        Self-potential: point-specific (ISelfS= 7).
                        Self-field    : sphere-specific E.n sum rule (ISelfD= 2).
 Solvent              : Generic,
                        Eps                           =   4.900000
                        Eps(infinity)                 =   0.000000
                        RSolv                         =   0.000000 Ang.
                        Molar volume                  =   0.000000 cm**3/mol
                        Thermal expansion coefficient =   0.000000 K**-1
                        Absolute temperature          = 298.150000 K
                        Numeral density               =   0.000000 Ang**-3
                        Hydrogen bond acidity         =   0.000000
                        Hydrogen bond basicity        =   0.000000
                        Surface tension at interface  =   0.000000 (cal/mol)*Ang**-2
                        Carbon aromaticity            =   0.000000
                        Electronegative halogenicity  =   0.000000
 ------------------------------------------------------------------------------
 GePol: Number of generator spheres                  =      48
 GePol: Total number of spheres                      =      48
 GePol: Number of exposed spheres                    =      48 (100.00%)
 GePol: Number of points                             =    3729
 GePol: Average weight of points                     =       0.12
 GePol: Minimum weight of points                     =   0.32D-11
 GePol: Maximum weight of points                     =    0.20577
 GePol: Number of points with low weight             =     168
 GePol: Fraction of low-weight points (<1% of avg)   =       4.51%
 GePol: Cavity surface area                          =    463.797 Ang**2
 GePol: Cavity volume                                =    545.523 Ang**3
 Leave Link  301 at Sun Mar  3 18:24:04 2024, MaxMem=  5368709120 cpu:         1.0
 (Enter /home/k0335/k033513/app/g09/l302.exe)
 NPDir=0 NMtPBC=     1 NCelOv=     1 NCel=       1 NClECP=     1 NCelD=      1
         NCelK=      1 NCelE2=     1 NClLst=     1 CellRange=     0.0.
 One-electron integrals computed using PRISM.
 NBasis=   630 RedAO= T EigKep=  1.21D-03  NBF=   630
 NBsUse=   630 1.00D-06 EigRej= -1.00D+00 NBFU=   630
 Precomputing XC quadrature grid using
 IXCGrd= 4 IRadAn=           0 IRanWt=          -1 IRanGd=           0 AccXCQ= 0.00D+00.
 Generated NRdTot=       0 NPtTot=           0 NUsed=           0 NTot=          32
 NSgBfM=   616   616   616   616   616 MxSgAt=    48 MxSgA2=    48.
 Leave Link  302 at Sun Mar  3 18:24:04 2024, MaxMem=  5368709120 cpu:        15.7
 (Enter /home/k0335/k033513/app/g09/l303.exe)
 DipDrv:  MaxL=1.
 Leave Link  303 at Sun Mar  3 18:24:04 2024, MaxMem=  5368709120 cpu:         1.1
 (Enter /home/k0335/k033513/app/g09/l401.exe)
 ExpMin= 1.61D-01 ExpMax= 7.00D+03 ExpMxC= 1.05D+03 IAcc=1 IRadAn=         1 AccDes= 0.00D+00
 Harris functional with IExCor=20419 and IRadAn=       1 diagonalized for initial guess.
 HarFok:  IExCor=20419 AccDes= 0.00D+00 IRadAn=         1 IDoV= 1 UseB2=F ITyADJ=14
 ICtDFT=  3500011 ScaDFX=  1.000000  1.000000  1.000000  1.000000
 FoFCou: FMM=F IPFlag=           0 FMFlag=      100000 FMFlg1=           0
         NFxFlg=           0 DoJE=T BraDBF=F KetDBF=T FulRan=T
         wScrn=  0.000000 ICntrl=     500 IOpCl=  0 I1Cent=   200000004 NGrid=           0
         NMat0=    1 NMatS0=      1 NMatT0=    0 NMatD0=    1 NMtDS0=    0 NMtDT0=    0
 Symmetry not used in FoFCou.
 Harris En= -2715.64531457396    
 JPrj=0 DoOrth=F DoCkMO=F.
 Leave Link  401 at Sun Mar  3 18:24:05 2024, MaxMem=  5368709120 cpu:        17.2
 (Enter /home/k0335/k033513/app/g09/l502.exe)
 Closed shell SCF:
 Using DIIS extrapolation, IDIIS=  1040.
 Two-electron integral symmetry not used.
 IVT=     1228246 IEndB=     1228246 NGot=  5368709120 MDV=  5367895045
 LenX=  5367895045 LenY=  5367497515
 Requested convergence on RMS density matrix=1.00D-08 within 128 cycles.
 Requested convergence on MAX density matrix=1.00D-06.
 Requested convergence on             energy=1.00D-06.
 No special actions if energy rises.
 Fock matrices will be formed incrementally for  20 cycles.

 Cycle   1  Pass 1  IDiag  1:
 FoFJK:  IHMeth= 1 ICntrl=       0 DoSepK=T KAlg= 0 I1Cent=   0 FoldK=F
 IRaf=         1 NMat=   1 IRICut=       1 DoRegI=T DoRafI=F ISym2E= 0.
 FoFCou: FMM=F IPFlag=           0 FMFlag=      100000 FMFlg1=           0
         NFxFlg=           0 DoJE=T BraDBF=F KetDBF=F FulRan=T
         wScrn=  0.000000 ICntrl=     500 IOpCl=  0 I1Cent=           0 NGrid=           0
         NMat0=    1 NMatS0=      1 NMatT0=    0 NMatD0=    1 NMtDS0=    0 NMtDT0=    0
 Symmetry not used in FoFCou.
 Inv3:  Mode=1 IEnd=    41716323.
 Iteration    1 A*A^-1 deviation from unit magnitude is 6.11D-15 for   3707.
 Iteration    1 A*A^-1 deviation from orthogonality  is 3.75D-15 for   3703    343.
 Iteration    1 A^-1*A deviation from unit magnitude is 6.44D-15 for   3702.
 Iteration    1 A^-1*A deviation from orthogonality  is 2.33D-10 for   3726   3691.
 Iteration    2 A*A^-1 deviation from unit magnitude is 2.89D-15 for    434.
 Iteration    2 A*A^-1 deviation from orthogonality  is 4.18D-15 for   3723    498.
 Iteration    2 A^-1*A deviation from unit magnitude is 9.99D-16 for    359.
 Iteration    2 A^-1*A deviation from orthogonality  is 6.66D-16 for   3727   3691.
 E= -2799.47738642998    
 DIIS: error= 4.67D-02 at cycle   1 NSaved=   1.
 NSaved= 1 IEnMin= 1 EnMin= -2799.47738642998     IErMin= 1 ErrMin= 4.67D-02
 ErrMax= 4.67D-02  0.00D+00 EMaxC= 1.00D-01 BMatC= 2.32D+00 BMatP= 2.32D+00
 IDIUse=3 WtCom= 5.33D-01 WtEn= 4.67D-01
 Coeff-Com:  0.100D+01
 Coeff-En:   0.100D+01
 Coeff:      0.100D+01
 Gap=     0.441 Goal=   None    Shift=    0.000
 GapD=    0.441 DampG=2.000 DampE=0.500 DampFc=1.0000 IDamp=-1.
 RMSDP=2.85D-03 MaxDP=1.01D-01              OVMax= 1.57D-01

 Cycle   2  Pass 1  IDiag  1:
 RMSU=  2.85D-03    CP:  1.00D+00
 E= -2799.90925072011     Delta-E=       -0.431864290136 Rises=F Damp=F
 DIIS: error= 2.26D-02 at cycle   2 NSaved=   2.
 NSaved= 2 IEnMin= 2 EnMin= -2799.90925072011     IErMin= 2 ErrMin= 2.26D-02
 ErrMax= 2.26D-02  0.00D+00 EMaxC= 1.00D-01 BMatC= 7.75D-01 BMatP= 2.32D+00
 IDIUse=3 WtCom= 7.74D-01 WtEn= 2.26D-01
 Coeff-Com:  0.345D+00 0.655D+00
 Coeff-En:   0.289D+00 0.711D+00
 Coeff:      0.332D+00 0.668D+00
 Gap=     0.423 Goal=   None    Shift=    0.000
 RMSDP=1.35D-03 MaxDP=9.93D-02 DE=-4.32D-01 OVMax= 1.10D-01

 Cycle   3  Pass 1  IDiag  1:
 RMSU=  8.30D-04    CP:  9.99D-01  6.25D-01
 E= -2800.27110474506     Delta-E=       -0.361854024948 Rises=F Damp=F
 DIIS: error= 8.63D-03 at cycle   3 NSaved=   3.
 NSaved= 3 IEnMin= 3 EnMin= -2800.27110474506     IErMin= 3 ErrMin= 8.63D-03
 ErrMax= 8.63D-03  0.00D+00 EMaxC= 1.00D-01 BMatC= 1.68D-01 BMatP= 7.75D-01
 IDIUse=3 WtCom= 9.14D-01 WtEn= 8.63D-02
 Coeff-Com:  0.950D-01 0.343D+00 0.562D+00
 Coeff-En:   0.000D+00 0.145D+00 0.855D+00
 Coeff:      0.868D-01 0.326D+00 0.587D+00
 Gap=     0.364 Goal=   None    Shift=    0.000
 RMSDP=6.26D-04 MaxDP=6.55D-02 DE=-3.62D-01 OVMax= 7.66D-02

 Cycle   4  Pass 1  IDiag  1:
 RMSU=  3.10D-04    CP:  9.98D-01  7.19D-01  4.30D-01
 E= -2800.37147637327     Delta-E=       -0.100371628207 Rises=F Damp=F
 DIIS: error= 3.18D-03 at cycle   4 NSaved=   4.
 NSaved= 4 IEnMin= 4 EnMin= -2800.37147637327     IErMin= 4 ErrMin= 3.18D-03
 ErrMax= 3.18D-03  0.00D+00 EMaxC= 1.00D-01 BMatC= 1.83D-02 BMatP= 1.68D-01
 IDIUse=3 WtCom= 9.68D-01 WtEn= 3.18D-02
 Coeff-Com:  0.643D-02 0.919D-01 0.308D+00 0.593D+00
 Coeff-En:   0.000D+00 0.000D+00 0.646D-01 0.935D+00
 Coeff:      0.623D-02 0.890D-01 0.301D+00 0.604D+00
 Gap=     0.357 Goal=   None    Shift=    0.000
 RMSDP=2.06D-04 MaxDP=2.24D-02 DE=-1.00D-01 OVMax= 2.24D-02

 Cycle   5  Pass 1  IDiag  1:
 RMSU=  8.87D-05    CP:  9.97D-01  7.13D-01  6.09D-01  6.46D-01
 E= -2800.38392323318     Delta-E=       -0.012446859915 Rises=F Damp=F
 DIIS: error= 8.17D-04 at cycle   5 NSaved=   5.
 NSaved= 5 IEnMin= 5 EnMin= -2800.38392323318     IErMin= 5 ErrMin= 8.17D-04
 ErrMax= 8.17D-04  0.00D+00 EMaxC= 1.00D-01 BMatC= 1.10D-03 BMatP= 1.83D-02
 IDIUse=3 WtCom= 9.92D-01 WtEn= 8.17D-03
 Coeff-Com: -0.634D-03 0.331D-01 0.140D+00 0.339D+00 0.488D+00
 Coeff-En:   0.000D+00 0.000D+00 0.000D+00 0.000D+00 0.100D+01
 Coeff:     -0.629D-03 0.328D-01 0.139D+00 0.336D+00 0.493D+00
 Gap=     0.351 Goal=   None    Shift=    0.000
 RMSDP=4.58D-05 MaxDP=4.37D-03 DE=-1.24D-02 OVMax= 5.05D-03

 Cycle   6  Pass 1  IDiag  1:
 RMSU=  2.15D-05    CP:  9.98D-01  7.16D-01  5.95D-01  6.82D-01  6.00D-01
 E= -2800.38471215854     Delta-E=       -0.000788925354 Rises=F Damp=F
 DIIS: error= 8.12D-05 at cycle   6 NSaved=   6.
 NSaved= 6 IEnMin= 6 EnMin= -2800.38471215854     IErMin= 6 ErrMin= 8.12D-05
 ErrMax= 8.12D-05  0.00D+00 EMaxC= 1.00D-01 BMatC= 2.24D-05 BMatP= 1.10D-03
 IDIUse=1 WtCom= 1.00D+00 WtEn= 0.00D+00
 Coeff-Com: -0.688D-03 0.718D-03 0.105D-01 0.384D-01 0.143D+00 0.808D+00
 Coeff:     -0.688D-03 0.718D-03 0.105D-01 0.384D-01 0.143D+00 0.808D+00
 Gap=     0.351 Goal=   None    Shift=    0.000
 RMSDP=1.00D-05 MaxDP=7.73D-04 DE=-7.89D-04 OVMax= 6.08D-04

 Cycle   7  Pass 1  IDiag  1:
 RMSU=  7.15D-06    CP:  9.98D-01  7.16D-01  5.99D-01  6.93D-01  6.56D-01
                    CP:  9.75D-01
 E= -2800.38472924411     Delta-E=       -0.000017085575 Rises=F Damp=F
 DIIS: error= 5.07D-05 at cycle   7 NSaved=   7.
 NSaved= 7 IEnMin= 7 EnMin= -2800.38472924411     IErMin= 7 ErrMin= 5.07D-05
 ErrMax= 5.07D-05  0.00D+00 EMaxC= 1.00D-01 BMatC= 4.00D-06 BMatP= 2.24D-05
 IDIUse=1 WtCom= 1.00D+00 WtEn= 0.00D+00
 Coeff-Com: -0.170D-03-0.298D-02-0.910D-02-0.166D-01 0.177D-01 0.353D+00
 Coeff-Com:  0.658D+00
 Coeff:     -0.170D-03-0.298D-02-0.910D-02-0.166D-01 0.177D-01 0.353D+00
 Coeff:      0.658D+00
 Gap=     0.351 Goal=   None    Shift=    0.000
 RMSDP=3.19D-06 MaxDP=2.12D-04 DE=-1.71D-05 OVMax= 3.41D-04

 Cycle   8  Pass 1  IDiag  1:
 RMSU=  1.91D-06    CP:  9.98D-01  7.16D-01  5.99D-01  6.93D-01  6.68D-01
                    CP:  1.06D+00  7.96D-01
 E= -2800.38473276436     Delta-E=       -0.000003520247 Rises=F Damp=F
 DIIS: error= 6.41D-06 at cycle   8 NSaved=   8.
 NSaved= 8 IEnMin= 8 EnMin= -2800.38473276436     IErMin= 8 ErrMin= 6.41D-06
 ErrMax= 6.41D-06  0.00D+00 EMaxC= 1.00D-01 BMatC= 1.94D-07 BMatP= 4.00D-06
 IDIUse=1 WtCom= 1.00D+00 WtEn= 0.00D+00
 Coeff-Com: -0.127D-04-0.110D-02-0.379D-02-0.865D-02-0.383D-02 0.529D-01
 Coeff-Com:  0.211D+00 0.754D+00
 Coeff:     -0.127D-04-0.110D-02-0.379D-02-0.865D-02-0.383D-02 0.529D-01
 Coeff:      0.211D+00 0.754D+00
 Gap=     0.351 Goal=   None    Shift=    0.000
 RMSDP=9.77D-07 MaxDP=8.58D-05 DE=-3.52D-06 OVMax= 9.40D-05

 Cycle   9  Pass 1  IDiag  1:
 RMSU=  6.63D-07    CP:  9.98D-01  7.16D-01  6.00D-01  6.93D-01  6.73D-01
                    CP:  1.07D+00  8.52D-01  1.01D+00
 E= -2800.38473293800     Delta-E=       -0.000000173639 Rises=F Damp=F
 DIIS: error= 3.07D-06 at cycle   9 NSaved=   9.
 NSaved= 9 IEnMin= 9 EnMin= -2800.38473293800     IErMin= 9 ErrMin= 3.07D-06
 ErrMax= 3.07D-06  0.00D+00 EMaxC= 1.00D-01 BMatC= 3.49D-08 BMatP= 1.94D-07
 IDIUse=1 WtCom= 1.00D+00 WtEn= 0.00D+00
 Coeff-Com:  0.150D-04-0.665D-04-0.339D-03-0.148D-02-0.387D-02-0.286D-01
 Coeff-Com:  0.869D-03 0.324D+00 0.709D+00
 Coeff:      0.150D-04-0.665D-04-0.339D-03-0.148D-02-0.387D-02-0.286D-01
 Coeff:      0.869D-03 0.324D+00 0.709D+00
 Gap=     0.351 Goal=   None    Shift=    0.000
 RMSDP=3.89D-07 MaxDP=3.26D-05 DE=-1.74D-07 OVMax= 5.50D-05

 Cycle  10  Pass 1  IDiag  1:
 RMSU=  2.31D-07    CP:  9.98D-01  7.16D-01  6.00D-01  6.93D-01  6.74D-01
                    CP:  1.08D+00  8.71D-01  1.10D+00  9.45D-01
 E= -2800.38473297018     Delta-E=       -0.000000032189 Rises=F Damp=F
 DIIS: error= 1.04D-06 at cycle  10 NSaved=  10.
 NSaved=10 IEnMin=10 EnMin= -2800.38473297018     IErMin=10 ErrMin= 1.04D-06
 ErrMax= 1.04D-06  0.00D+00 EMaxC= 1.00D-01 BMatC= 2.16D-09 BMatP= 3.49D-08
 IDIUse=1 WtCom= 1.00D+00 WtEn= 0.00D+00
 Coeff-Com:  0.619D-05 0.930D-04 0.293D-03 0.409D-03-0.621D-03-0.148D-01
 Coeff-Com: -0.206D-01 0.262D-01 0.223D+00 0.786D+00
 Coeff:      0.619D-05 0.930D-04 0.293D-03 0.409D-03-0.621D-03-0.148D-01
 Coeff:     -0.206D-01 0.262D-01 0.223D+00 0.786D+00
 Gap=     0.351 Goal=   None    Shift=    0.000
 RMSDP=1.28D-07 MaxDP=1.27D-05 DE=-3.22D-08 OVMax= 1.66D-05

 Cycle  11  Pass 1  IDiag  1:
 RMSU=  7.93D-08    CP:  9.98D-01  7.16D-01  6.00D-01  6.93D-01  6.74D-01
                    CP:  1.08D+00  8.77D-01  1.13D+00  1.02D+00  9.79D-01
 E= -2800.38473297237     Delta-E=       -0.000000002190 Rises=F Damp=F
 DIIS: error= 4.36D-07 at cycle  11 NSaved=  11.
 NSaved=11 IEnMin=11 EnMin= -2800.38473297237     IErMin=11 ErrMin= 4.36D-07
 ErrMax= 4.36D-07  0.00D+00 EMaxC= 1.00D-01 BMatC= 4.12D-10 BMatP= 2.16D-09
 IDIUse=1 WtCom= 1.00D+00 WtEn= 0.00D+00
 Coeff-Com:  0.175D-05 0.466D-04 0.159D-03 0.285D-03 0.947D-04-0.451D-02
 Coeff-Com: -0.896D-02-0.118D-01 0.491D-01 0.362D+00 0.613D+00
 Coeff:      0.175D-05 0.466D-04 0.159D-03 0.285D-03 0.947D-04-0.451D-02
 Coeff:     -0.896D-02-0.118D-01 0.491D-01 0.362D+00 0.613D+00
 Gap=     0.351 Goal=   None    Shift=    0.000
 RMSDP=3.90D-08 MaxDP=4.10D-06 DE=-2.19D-09 OVMax= 7.27D-06

 Cycle  12  Pass 1  IDiag  1:
 RMSU=  2.74D-08    CP:  9.98D-01  7.16D-01  6.00D-01  6.93D-01  6.74D-01
                    CP:  1.08D+00  8.77D-01  1.14D+00  1.04D+00  1.05D+00
                    CP:  8.58D-01
 E= -2800.38473297288     Delta-E=       -0.000000000507 Rises=F Damp=F
 DIIS: error= 2.63D-07 at cycle  12 NSaved=  12.
 NSaved=12 IEnMin=12 EnMin= -2800.38473297288     IErMin=12 ErrMin= 2.63D-07
 ErrMax= 2.63D-07  0.00D+00 EMaxC= 1.00D-01 BMatC= 6.48D-11 BMatP= 4.12D-10
 IDIUse=1 WtCom= 1.00D+00 WtEn= 0.00D+00
 Coeff-Com: -0.220D-06 0.780D-05 0.324D-04 0.750D-04 0.211D-03 0.379D-03
 Coeff-Com: -0.748D-03-0.107D-01-0.162D-01 0.313D-01 0.287D+00 0.709D+00
 Coeff:     -0.220D-06 0.780D-05 0.324D-04 0.750D-04 0.211D-03 0.379D-03
 Coeff:     -0.748D-03-0.107D-01-0.162D-01 0.313D-01 0.287D+00 0.709D+00
 Gap=     0.351 Goal=   None    Shift=    0.000
 RMSDP=1.76D-08 MaxDP=1.65D-06 DE=-5.07D-10 OVMax= 2.48D-06

 Cycle  13  Pass 1  IDiag  1:
 RMSU=  9.61D-09    CP:  9.98D-01  7.16D-01  6.00D-01  6.93D-01  6.74D-01
                    CP:  1.08D+00  8.77D-01  1.14D+00  1.05D+00  1.08D+00
                    CP:  9.63D-01  8.75D-01
 E= -2800.38473297313     Delta-E=       -0.000000000247 Rises=F Damp=F
 DIIS: error= 6.83D-08 at cycle  13 NSaved=  13.
 NSaved=13 IEnMin=13 EnMin= -2800.38473297313     IErMin=13 ErrMin= 6.83D-08
 ErrMax= 6.83D-08  0.00D+00 EMaxC= 1.00D-01 BMatC= 5.83D-12 BMatP= 6.48D-11
 IDIUse=1 WtCom= 1.00D+00 WtEn= 0.00D+00
 Coeff-Com: -0.281D-06-0.170D-05-0.247D-05 0.610D-06 0.890D-04 0.623D-03
 Coeff-Com:  0.657D-03-0.338D-02-0.123D-01-0.285D-01 0.476D-01 0.274D+00
 Coeff-Com:  0.721D+00
 Coeff:     -0.281D-06-0.170D-05-0.247D-05 0.610D-06 0.890D-04 0.623D-03
 Coeff:      0.657D-03-0.338D-02-0.123D-01-0.285D-01 0.476D-01 0.274D+00
 Coeff:      0.721D+00
 Gap=     0.351 Goal=   None    Shift=    0.000
 RMSDP=5.81D-09 MaxDP=4.91D-07 DE=-2.47D-10 OVMax= 9.64D-07

 Error on total polarization charges =  0.00337
 SCF Done:  E(RCAM-B3LYP) =  -2800.38473297     A.U. after   13 cycles
            NFock= 13  Conv=0.58D-08     -V/T= 2.0074
 KE= 2.779895311627D+03 PE=-1.847793356705D+04 EE= 6.967965580478D+03
 Leave Link  502 at Sun Mar  3 18:25:06 2024, MaxMem=  5368709120 cpu:      1377.7
 (Enter /home/k0335/k033513/app/g09/l601.exe)
 Copying SCF densities to generalized density rwf, IOpCl= 0 IROHF=0.

 **********************************************************************

            Population analysis using the SCF density.

 **********************************************************************

 Alpha  occ. eigenvalues --  -24.84435 -24.84407 -24.83638 -24.83541 -24.83507
 Alpha  occ. eigenvalues --  -24.83330 -24.83297 -24.83233 -24.83200 -24.83067
 Alpha  occ. eigenvalues --  -24.82814 -24.82806 -24.82445 -24.82439 -24.82157
 Alpha  occ. eigenvalues --  -24.81986 -24.81594 -24.81093 -19.32386 -19.32324
 Alpha  occ. eigenvalues --  -19.22686 -19.21400 -14.51481 -14.49688 -14.46734
 Alpha  occ. eigenvalues --  -10.59215 -10.59076 -10.56147 -10.55094 -10.52675
 Alpha  occ. eigenvalues --  -10.52433 -10.48961 -10.48454 -10.44881 -10.43111
 Alpha  occ. eigenvalues --  -10.36445 -10.30897 -10.26265 -10.25272  -1.43290
 Alpha  occ. eigenvalues --   -1.42779  -1.42290  -1.41444  -1.38851  -1.37657
 Alpha  occ. eigenvalues --   -1.34988  -1.34904  -1.33698  -1.33393  -1.33165
 Alpha  occ. eigenvalues --   -1.33022  -1.32947  -1.32738  -1.32538  -1.31818
 Alpha  occ. eigenvalues --   -1.31356  -1.30119  -1.20667  -1.20139  -1.19710
 Alpha  occ. eigenvalues --   -1.15889  -1.09855  -1.07415  -1.03480  -0.93551
 Alpha  occ. eigenvalues --   -0.92762  -0.87939  -0.85056  -0.84021  -0.82397
 Alpha  occ. eigenvalues --   -0.82238  -0.80826  -0.78703  -0.77777  -0.75556
 Alpha  occ. eigenvalues --   -0.75108  -0.73434  -0.72808  -0.72364  -0.71415
 Alpha  occ. eigenvalues --   -0.70652  -0.70118  -0.70095  -0.69662  -0.69627
 Alpha  occ. eigenvalues --   -0.69089  -0.68870  -0.68307  -0.67090  -0.66750
 Alpha  occ. eigenvalues --   -0.66586  -0.66125  -0.65570  -0.64962  -0.63816
 Alpha  occ. eigenvalues --   -0.63057  -0.62102  -0.59753  -0.59239  -0.58225
 Alpha  occ. eigenvalues --   -0.57943  -0.57322  -0.57108  -0.56793  -0.56615
 Alpha  occ. eigenvalues --   -0.56488  -0.56265  -0.55804  -0.55677  -0.55389
 Alpha  occ. eigenvalues --   -0.55153  -0.54791  -0.54607  -0.54049  -0.53704
 Alpha  occ. eigenvalues --   -0.53496  -0.53204  -0.53016  -0.52875  -0.52563
 Alpha  occ. eigenvalues --   -0.52521  -0.52401  -0.52227  -0.51745  -0.51656
 Alpha  occ. eigenvalues --   -0.51300  -0.51154  -0.50884  -0.50870  -0.50471
 Alpha  occ. eigenvalues --   -0.50300  -0.50198  -0.49945  -0.49736  -0.49548
 Alpha  occ. eigenvalues --   -0.49428  -0.49087  -0.48765  -0.48501  -0.48193
 Alpha  occ. eigenvalues --   -0.47736  -0.47301  -0.45402  -0.45181  -0.44533
 Alpha  occ. eigenvalues --   -0.43884  -0.42507  -0.41279  -0.40996  -0.38564
 Alpha  occ. eigenvalues --   -0.37174  -0.36317  -0.35413  -0.32604
 Alpha virt. eigenvalues --    0.02523   0.05498   0.06296   0.07304   0.08397
 Alpha virt. eigenvalues --    0.09576   0.12121   0.13517   0.14614   0.15952
 Alpha virt. eigenvalues --    0.16279   0.16642   0.17212   0.18780   0.19527
 Alpha virt. eigenvalues --    0.20074   0.20293   0.20771   0.20907   0.21790
 Alpha virt. eigenvalues --    0.22326   0.22677   0.22854   0.22879   0.23113
 Alpha virt. eigenvalues --    0.23537   0.24294   0.24468   0.24855   0.25370
 Alpha virt. eigenvalues --    0.25715   0.25988   0.26426   0.26973   0.27373
 Alpha virt. eigenvalues --    0.27803   0.28171   0.28663   0.29503   0.29578
 Alpha virt. eigenvalues --    0.31638   0.32075   0.32781   0.34335   0.35278
 Alpha virt. eigenvalues --    0.36082   0.40412   0.41245   0.42223   0.46326
 Alpha virt. eigenvalues --    0.47771   0.48638   0.49742   0.50168   0.51204
 Alpha virt. eigenvalues --    0.51320   0.51617   0.52158   0.52851   0.53614
 Alpha virt. eigenvalues --    0.54350   0.54842   0.55283   0.55543   0.56198
 Alpha virt. eigenvalues --    0.56534   0.57271   0.57628   0.58539   0.59279
 Alpha virt. eigenvalues --    0.59901   0.60215   0.60792   0.61134   0.61793
 Alpha virt. eigenvalues --    0.63113   0.64579   0.65878   0.66707   0.67032
 Alpha virt. eigenvalues --    0.68472   0.69268   0.70586   0.73071   0.73847
 Alpha virt. eigenvalues --    0.74584   0.75716   0.75991   0.76977   0.78092
 Alpha virt. eigenvalues --    0.79390   0.81345   0.82527   0.82971   0.83796
 Alpha virt. eigenvalues --    0.85017   0.85750   0.86448   0.87581   0.88984
 Alpha virt. eigenvalues --    0.89523   0.90931   0.91364   0.91797   0.93246
 Alpha virt. eigenvalues --    0.94416   0.94816   0.95115   0.96201   0.97805
 Alpha virt. eigenvalues --    0.97953   0.99053   0.99567   0.99949   1.00609
 Alpha virt. eigenvalues --    1.01761   1.03054   1.03474   1.04519   1.04940
 Alpha virt. eigenvalues --    1.06114   1.06780   1.07918   1.09188   1.09485
 Alpha virt. eigenvalues --    1.09803   1.10741   1.11053   1.12056   1.12173
 Alpha virt. eigenvalues --    1.13340   1.13380   1.14127   1.15324   1.16200
 Alpha virt. eigenvalues --    1.16831   1.17386   1.17817   1.18353   1.19172
 Alpha virt. eigenvalues --    1.19749   1.20099   1.21235   1.21567   1.22358
 Alpha virt. eigenvalues --    1.23220   1.23718   1.24153   1.25251   1.26678
 Alpha virt. eigenvalues --    1.27396   1.27797   1.29107   1.29536   1.30473
 Alpha virt. eigenvalues --    1.30891   1.31174   1.32236   1.32865   1.33602
 Alpha virt. eigenvalues --    1.33734   1.33824   1.35243   1.35773   1.35983
 Alpha virt. eigenvalues --    1.36408   1.37356   1.37984   1.38192   1.38910
 Alpha virt. eigenvalues --    1.39211   1.39931   1.40179   1.40509   1.40893
 Alpha virt. eigenvalues --    1.41089   1.41477   1.42262   1.42609   1.42841
 Alpha virt. eigenvalues --    1.43617   1.43785   1.45024   1.45682   1.47046
 Alpha virt. eigenvalues --    1.47334   1.48305   1.48634   1.48957   1.49775
 Alpha virt. eigenvalues --    1.50564   1.50773   1.50933   1.51933   1.52630
 Alpha virt. eigenvalues --    1.53206   1.54113   1.54437   1.55498   1.55790
 Alpha virt. eigenvalues --    1.56897   1.57500   1.57971   1.59101   1.60589
 Alpha virt. eigenvalues --    1.60810   1.62477   1.63614   1.63664   1.65112
 Alpha virt. eigenvalues --    1.65875   1.66070   1.66903   1.68156   1.69117
 Alpha virt. eigenvalues --    1.69591   1.70538   1.71344   1.71668   1.72096
 Alpha virt. eigenvalues --    1.73276   1.73687   1.74294   1.74413   1.75636
 Alpha virt. eigenvalues --    1.76850   1.77171   1.77934   1.78557   1.79732
 Alpha virt. eigenvalues --    1.80421   1.80904   1.81213   1.83014   1.83190
 Alpha virt. eigenvalues --    1.83931   1.84240   1.84551   1.84880   1.85629
 Alpha virt. eigenvalues --    1.85924   1.86138   1.86413   1.87118   1.87763
 Alpha virt. eigenvalues --    1.88003   1.88262   1.89035   1.89812   1.89997
 Alpha virt. eigenvalues --    1.90416   1.90820   1.91173   1.91499   1.91626
 Alpha virt. eigenvalues --    1.92100   1.92640   1.92853   1.93844   1.93970
 Alpha virt. eigenvalues --    1.94266   1.94808   1.95011   1.95378   1.95535
 Alpha virt. eigenvalues --    1.96187   1.97186   1.97471   1.98223   1.98957
 Alpha virt. eigenvalues --    1.99195   1.99557   2.00381   2.00794   2.01202
 Alpha virt. eigenvalues --    2.01342   2.01770   2.02267   2.02388   2.02831
 Alpha virt. eigenvalues --    2.03291   2.03646   2.04018   2.04278   2.04730
 Alpha virt. eigenvalues --    2.04945   2.05491   2.05755   2.06484   2.07097
 Alpha virt. eigenvalues --    2.07403   2.08655   2.09086   2.09189   2.09735
 Alpha virt. eigenvalues --    2.10158   2.10530   2.11156   2.11404   2.12204
 Alpha virt. eigenvalues --    2.12594   2.12923   2.14128   2.14789   2.15238
 Alpha virt. eigenvalues --    2.16075   2.16834   2.17301   2.18424   2.18760
 Alpha virt. eigenvalues --    2.19322   2.19520   2.19904   2.20816   2.21153
 Alpha virt. eigenvalues --    2.22181   2.22265   2.22985   2.24194   2.24505
 Alpha virt. eigenvalues --    2.25676   2.26285   2.27829   2.28349   2.28771
 Alpha virt. eigenvalues --    2.29180   2.30465   2.31792   2.33303   2.33785
 Alpha virt. eigenvalues --    2.34954   2.35869   2.37161   2.37944   2.39239
 Alpha virt. eigenvalues --    2.39568   2.40140   2.41232   2.42006   2.43214
 Alpha virt. eigenvalues --    2.43731   2.44263   2.44954   2.45735   2.47209
 Alpha virt. eigenvalues --    2.47524   2.49345   2.49558   2.50010   2.51483
 Alpha virt. eigenvalues --    2.51820   2.53550   2.53933   2.56814   2.57271
 Alpha virt. eigenvalues --    2.58941   2.59941   2.60671   2.61791   2.62779
 Alpha virt. eigenvalues --    2.63071   2.64769   2.65055   2.66466   2.66512
 Alpha virt. eigenvalues --    2.67308   2.68217   2.68629   2.71396   2.72571
 Alpha virt. eigenvalues --    2.73508   2.75041   2.75851   2.76537   2.77665
 Alpha virt. eigenvalues --    2.78532   2.80434   2.80840   2.81327   2.83061
 Alpha virt. eigenvalues --    2.83889   2.84505   2.85157   2.86304   2.87628
 Alpha virt. eigenvalues --    2.88319   2.88580   2.89478   2.91729   2.92229
 Alpha virt. eigenvalues --    2.92576   2.93394   2.94369   2.94548   2.94985
 Alpha virt. eigenvalues --    2.96564   2.97328   2.97441   2.98252   3.00046
 Alpha virt. eigenvalues --    3.00884   3.02963   3.03981   3.05014   3.05518
 Alpha virt. eigenvalues --    3.06195   3.06650   3.07206   3.08536   3.09648
 Alpha virt. eigenvalues --    3.11284   3.13506   3.14863   3.15776   3.16725
 Alpha virt. eigenvalues --    3.19390   3.20213   3.21154   3.22245   3.26644
 Alpha virt. eigenvalues --    3.26703   3.28284   3.30109   3.30604   3.31995
 Alpha virt. eigenvalues --    3.33179   3.35222   3.36136   3.37187   3.39366
 Alpha virt. eigenvalues --    3.41937   3.43044   3.47965   3.52834   3.54680
 Alpha virt. eigenvalues --    3.58329   3.63858   4.04231   4.12961   4.14005
 Alpha virt. eigenvalues --    4.16617   4.26270   4.26647   4.30550   4.36334
 Alpha virt. eigenvalues --    4.37338   4.39916   4.42492   4.43785   4.48157
 Alpha virt. eigenvalues --    4.48515   4.52849   4.56458   4.59761   4.62648
 Alpha virt. eigenvalues --    4.64861   4.67769   4.71006   4.73995   4.76954
 Alpha virt. eigenvalues --    4.78995   4.86752   5.00145   5.02851   5.23854
 Alpha virt. eigenvalues --    5.25545   5.41198   5.51168   5.59418   5.63307
 Alpha virt. eigenvalues --    5.67732   5.73799   6.23583   6.30201   6.30609
 Alpha virt. eigenvalues --    6.35912
          Condensed to atoms (all electrons):
               1          2          3          4          5          6
     1  C    4.928546   0.364161  -0.049663  -0.000062   0.000061   0.000086
     2  C    0.364161   4.914947   0.376986  -0.057009  -0.000821  -0.000088
     3  C   -0.049663   0.376986   4.804295   0.279376  -0.040856   0.002071
     4  N   -0.000062  -0.057009   0.279376   7.157267   0.245344  -0.035887
     5  C    0.000061  -0.000821  -0.040856   0.245344   4.735842   0.216985
     6  N    0.000086  -0.000088   0.002071  -0.035887   0.216985   7.484031
     7  C    0.000002   0.000003  -0.000055   0.002513  -0.022062   0.165400
     8  F    0.000000   0.000000   0.000001   0.000344   0.000649  -0.042294
     9  F    0.000000   0.000000   0.000000  -0.000030   0.001276  -0.066857
    10  C    0.000000   0.000000   0.000000  -0.000125   0.000186  -0.069428
    11  F    0.000000   0.000000   0.000000   0.000000   0.000015   0.001443
    12  O    0.000000   0.000000   0.000000   0.000000   0.000023   0.000786
    13  C    0.000000   0.000000   0.000000   0.000000   0.000002  -0.000194
    14  F    0.000000   0.000000   0.000000   0.000000   0.000000   0.000005
    15  F    0.000000   0.000000   0.000000   0.000000   0.000000   0.000000
    16  F    0.000000   0.000000   0.000000   0.000000   0.000000   0.000000
    17  C    0.000000   0.000000   0.000001   0.000025  -0.000084   0.006630
    18  F    0.000002   0.000000   0.000000   0.000032   0.002134  -0.003378
    19  F    0.000000   0.000000   0.000000   0.000000   0.000004  -0.000021
    20  F    0.000000   0.000000   0.000000  -0.000005  -0.001461  -0.003350
    21  C   -0.000004   0.000034   0.000466  -0.005961  -0.026815   0.238975
    22  O    0.000000   0.000000   0.000001   0.000094   0.002214  -0.097497
    23  N    0.000007  -0.000272   0.003565  -0.103952   0.008860  -0.099511
    24  C    0.000000   0.000004  -0.000045   0.001910  -0.000120   0.001832
    25  F    0.000000  -0.000001   0.000006   0.000064  -0.000004  -0.000020
    26  F    0.000000   0.000000   0.000000  -0.000025  -0.000021   0.000023
    27  C    0.000000   0.000000   0.000004  -0.000132   0.000037  -0.000268
    28  F    0.000000   0.000000   0.000000   0.000001   0.000001   0.000021
    29  O    0.000000   0.000000   0.000000   0.000000   0.000000   0.000000
    30  C    0.000000   0.000000   0.000000   0.000000   0.000000   0.000000
    31  F    0.000000   0.000000   0.000000   0.000000   0.000000   0.000000
    32  F    0.000000   0.000000   0.000000   0.000000   0.000000   0.000000
    33  F    0.000000   0.000000   0.000000   0.000000   0.000000   0.000000
    34  C    0.000000   0.000000  -0.000005  -0.000071  -0.000004   0.000024
    35  F    0.000000   0.000000   0.000000  -0.000005   0.000000   0.000000
    36  F    0.000000   0.000000   0.000000   0.000000   0.000000   0.000000
    37  F    0.000000   0.000000   0.000003  -0.000965   0.000042  -0.000071
    38  C    0.000058  -0.004778  -0.024404   0.302876  -0.033753  -0.004840
    39  O    0.000070  -0.003706   0.001970  -0.094352   0.002222   0.000061
    40  H    0.388399  -0.028935   0.004552  -0.000057  -0.000039  -0.000001
    41  H    0.388792  -0.035837  -0.004954   0.002685  -0.000563   0.000127
    42  H    0.390394  -0.037635  -0.005224  -0.000250   0.000126   0.000005
    43  H   -0.038886   0.385831  -0.033097   0.004588  -0.000023   0.000002
    44  H   -0.039512   0.392445  -0.030820  -0.009436  -0.000196  -0.000004
    45  H    0.004802  -0.039633   0.387805  -0.036919   0.005056  -0.000149
    46  H   -0.006437  -0.043494   0.390856  -0.038970  -0.005679   0.000287
    47  H    0.000400  -0.001254  -0.004105  -0.033326   0.392914  -0.028378
    48  H   -0.000714   0.001599   0.003656  -0.058019   0.393988  -0.065707
               7          8          9         10         11         12
     1  C    0.000002   0.000000   0.000000   0.000000   0.000000   0.000000
     2  C    0.000003   0.000000   0.000000   0.000000   0.000000   0.000000
     3  C   -0.000055   0.000001   0.000000   0.000000   0.000000   0.000000
     4  N    0.002513   0.000344  -0.000030  -0.000125   0.000000   0.000000
     5  C   -0.022062   0.000649   0.001276   0.000186   0.000015   0.000023
     6  N    0.165400  -0.042294  -0.066857  -0.069428   0.001443   0.000786
     7  C    4.359525   0.266881   0.297974   0.247487  -0.007327  -0.027539
     8  F    0.266881   9.110158  -0.040631  -0.030777  -0.000889   0.000552
     9  F    0.297974  -0.040631   9.095701  -0.030830  -0.000573   0.001018
    10  C    0.247487  -0.030777  -0.030830   4.986936   0.205787   0.170154
    11  F   -0.007327  -0.000889  -0.000573   0.205787   9.146124  -0.053346
    12  O   -0.027539   0.000552   0.001018   0.170154  -0.053346   8.322072
    13  C    0.001474   0.000009   0.000038   0.002855  -0.001439   0.235432
    14  F   -0.000214   0.000000   0.000000  -0.009909  -0.000017  -0.047553
    15  F   -0.000029   0.000000   0.000000   0.000579  -0.000016  -0.038216
    16  F    0.000167   0.000000   0.000000   0.012445  -0.000624  -0.047293
    17  C   -0.040157  -0.001144   0.001187   0.178734  -0.015363  -0.027096
    18  F    0.009824  -0.001390   0.000004  -0.031095  -0.000157   0.000545
    19  F    0.001502  -0.000004  -0.000001  -0.029621   0.000003  -0.001216
    20  F   -0.004163  -0.000014   0.000000  -0.029142   0.000317   0.000119
    21  C   -0.011796   0.001553   0.005932  -0.003077   0.000053   0.004580
    22  O    0.011678   0.000014  -0.001678   0.002439   0.000004  -0.014607
    23  N    0.002203  -0.000021   0.000037  -0.000231   0.000000   0.000015
    24  C   -0.000025   0.000000   0.000003  -0.000011   0.000000   0.000004
    25  F    0.000000   0.000000   0.000000   0.000000   0.000000   0.000000
    26  F    0.000010   0.000000   0.000000  -0.000005   0.000000   0.000000
    27  C    0.000001   0.000000   0.000000   0.000000   0.000000   0.000000
    28  F    0.000002   0.000000   0.000000   0.000001   0.000000   0.000000
    29  O    0.000000   0.000000   0.000000   0.000000   0.000000   0.000000
    30  C    0.000000   0.000000   0.000000   0.000000   0.000000   0.000000
    31  F    0.000000   0.000000   0.000000   0.000000   0.000000   0.000000
    32  F    0.000000   0.000000   0.000000   0.000000   0.000000   0.000000
    33  F    0.000000   0.000000   0.000000   0.000000   0.000000   0.000000
    34  C    0.000000   0.000000   0.000000   0.000000   0.000000   0.000000
    35  F    0.000000   0.000000   0.000000   0.000000   0.000000   0.000000
    36  F    0.000000   0.000000   0.000000   0.000000   0.000000   0.000000
    37  F    0.000000   0.000000   0.000000   0.000000   0.000000   0.000000
    38  C    0.000143  -0.000003  -0.000012   0.000008   0.000000   0.000000
    39  O    0.000001   0.000000   0.000000   0.000000   0.000000   0.000000
    40  H    0.000000   0.000000   0.000000   0.000000   0.000000   0.000000
    41  H    0.000002   0.000002   0.000000   0.000001   0.000000   0.000000
    42  H   -0.000001   0.000000   0.000000   0.000000   0.000000   0.000000
    43  H    0.000000   0.000000   0.000000   0.000000   0.000000   0.000000
    44  H    0.000000   0.000000   0.000000   0.000000   0.000000   0.000000
    45  H    0.000001   0.000000   0.000000   0.000000   0.000000   0.000000
    46  H   -0.000013  -0.000024   0.000000   0.000000   0.000000   0.000000
    47  H   -0.004424   0.011176   0.000499   0.000486   0.000001  -0.000003
    48  H   -0.000297  -0.000413  -0.000105   0.000037  -0.000001  -0.000004
              13         14         15         16         17         18
     1  C    0.000000   0.000000   0.000000   0.000000   0.000000   0.000002
     2  C    0.000000   0.000000   0.000000   0.000000   0.000000   0.000000
     3  C    0.000000   0.000000   0.000000   0.000000   0.000001   0.000000
     4  N    0.000000   0.000000   0.000000   0.000000   0.000025   0.000032
     5  C    0.000002   0.000000   0.000000   0.000000  -0.000084   0.002134
     6  N   -0.000194   0.000005   0.000000   0.000000   0.006630  -0.003378
     7  C    0.001474  -0.000214  -0.000029   0.000167  -0.040157   0.009824
     8  F    0.000009   0.000000   0.000000   0.000000  -0.001144  -0.001390
     9  F    0.000038   0.000000   0.000000   0.000000   0.001187   0.000004
    10  C    0.002855  -0.009909   0.000579   0.012445   0.178734  -0.031095
    11  F   -0.001439  -0.000017  -0.000016  -0.000624  -0.015363  -0.000157
    12  O    0.235432  -0.047553  -0.038216  -0.047293  -0.027096   0.000545
    13  C    3.832673   0.298024   0.339858   0.291842  -0.004585   0.000054
    14  F    0.298024   9.065860  -0.036877  -0.034479   0.019420   0.000001
    15  F    0.339858  -0.036877   9.009286  -0.036408  -0.000010   0.000000
    16  F    0.291842  -0.034479  -0.036408   9.067790  -0.004467   0.000000
    17  C   -0.004585   0.019420  -0.000010  -0.004467   4.258272   0.280708
    18  F    0.000054   0.000001   0.000000   0.000000   0.280708   9.064671
    19  F    0.010235  -0.006220  -0.000004  -0.001373   0.280560  -0.038355
    20  F   -0.000467  -0.000616   0.000000   0.000013   0.254847  -0.038877
    21  C    0.000216   0.000098  -0.000002   0.000001  -0.001857  -0.000081
    22  O    0.002503  -0.000050  -0.000029  -0.000001  -0.001608   0.000000
    23  N    0.000003   0.000000   0.000000   0.000000  -0.000030   0.000001
    24  C    0.000000   0.000000   0.000000   0.000000   0.000003   0.000000
    25  F    0.000000   0.000000   0.000000   0.000000   0.000000   0.000000
    26  F    0.000000   0.000000   0.000000   0.000000   0.000004   0.000000
    27  C    0.000000   0.000000   0.000000   0.000000   0.000000   0.000000
    28  F    0.000000   0.000000   0.000000   0.000000   0.000000   0.000000
    29  O    0.000000   0.000000   0.000000   0.000000   0.000000   0.000000
    30  C    0.000000   0.000000   0.000000   0.000000   0.000000   0.000000
    31  F    0.000000   0.000000   0.000000   0.000000   0.000000   0.000000
    32  F    0.000000   0.000000   0.000000   0.000000   0.000000   0.000000
    33  F    0.000000   0.000000   0.000000   0.000000   0.000000   0.000000
    34  C    0.000000   0.000000   0.000000   0.000000   0.000000   0.000000
    35  F    0.000000   0.000000   0.000000   0.000000   0.000000   0.000000
    36  F    0.000000   0.000000   0.000000   0.000000   0.000000   0.000000
    37  F    0.000000   0.000000   0.000000   0.000000   0.000000   0.000000
    38  C    0.000000   0.000000   0.000000   0.000000  -0.000004  -0.000001
    39  O    0.000000   0.000000   0.000000   0.000000   0.000000   0.000000
    40  H    0.000000   0.000000   0.000000   0.000000   0.000000   0.000000
    41  H    0.000000   0.000000   0.000000   0.000000  -0.000010  -0.000022
    42  H    0.000000   0.000000   0.000000   0.000000   0.000000   0.000000
    43  H    0.000000   0.000000   0.000000   0.000000   0.000000   0.000000
    44  H    0.000000   0.000000   0.000000   0.000000   0.000000   0.000000
    45  H    0.000000   0.000000   0.000000   0.000000   0.000000   0.000000
    46  H    0.000000   0.000000   0.000000   0.000000   0.000000   0.000000
    47  H    0.000000   0.000000   0.000000   0.000000  -0.000112  -0.000086
    48  H    0.000001   0.000000   0.000000   0.000000   0.001770   0.003593
              19         20         21         22         23         24
     1  C    0.000000   0.000000  -0.000004   0.000000   0.000007   0.000000
     2  C    0.000000   0.000000   0.000034   0.000000  -0.000272   0.000004
     3  C    0.000000   0.000000   0.000466   0.000001   0.003565  -0.000045
     4  N    0.000000  -0.000005  -0.005961   0.000094  -0.103952   0.001910
     5  C    0.000004  -0.001461  -0.026815   0.002214   0.008860  -0.000120
     6  N   -0.000021  -0.003350   0.238975  -0.097497  -0.099511   0.001832
     7  C    0.001502  -0.004163  -0.011796   0.011678   0.002203  -0.000025
     8  F   -0.000004  -0.000014   0.001553   0.000014  -0.000021   0.000000
     9  F   -0.000001   0.000000   0.005932  -0.001678   0.000037   0.000003
    10  C   -0.029621  -0.029142  -0.003077   0.002439  -0.000231  -0.000011
    11  F    0.000003   0.000317   0.000053   0.000004   0.000000   0.000000
    12  O   -0.001216   0.000119   0.004580  -0.014607   0.000015   0.000004
    13  C    0.010235  -0.000467   0.000216   0.002503   0.000003   0.000000
    14  F   -0.006220  -0.000616   0.000098  -0.000050   0.000000   0.000000
    15  F   -0.000004   0.000000  -0.000002  -0.000029   0.000000   0.000000
    16  F   -0.001373   0.000013   0.000001  -0.000001   0.000000   0.000000
    17  C    0.280560   0.254847  -0.001857  -0.001608  -0.000030   0.000003
    18  F   -0.038355  -0.038877  -0.000081   0.000000   0.000001   0.000000
    19  F    9.071113  -0.037212   0.000009   0.000000   0.000000   0.000000
    20  F   -0.037212   9.086897   0.014592  -0.001332  -0.000980   0.000019
    21  C    0.000009   0.014592   4.200720   0.567748   0.184242  -0.014305
    22  O    0.000000  -0.001332   0.567748   8.122165  -0.086616   0.013555
    23  N    0.000000  -0.000980   0.184242  -0.086616   7.627312   0.178787
    24  C    0.000000   0.000019  -0.014305   0.013555   0.178787   4.371555
    25  F    0.000000   0.000000   0.000681   0.000008  -0.039661   0.278756
    26  F    0.000000  -0.000004   0.007372  -0.006668  -0.049205   0.268006
    27  C    0.000000   0.000000  -0.002422  -0.000820  -0.068579   0.220295
    28  F    0.000000   0.000000   0.008413  -0.007021  -0.000563  -0.022759
    29  O    0.000000   0.000000   0.000155  -0.000039   0.001679  -0.020022
    30  C    0.000000   0.000000  -0.000003  -0.000003  -0.000005   0.000959
    31  F    0.000000   0.000000   0.000000   0.000000   0.000000  -0.000166
    32  F    0.000000   0.000000   0.000000   0.000000   0.000000  -0.000044
    33  F    0.000000   0.000000   0.000001   0.000000   0.000000   0.000188
    34  C    0.000000   0.000000  -0.000369  -0.000158  -0.002115  -0.037338
    35  F    0.000000   0.000000   0.000030   0.000000  -0.000408   0.002535
    36  F    0.000000   0.000000   0.000003   0.000000  -0.000016   0.001481
    37  F    0.000000   0.000000   0.002216  -0.000029  -0.002133  -0.004722
    38  C    0.000000   0.000027  -0.005786  -0.000159   0.180189  -0.005485
    39  O    0.000000   0.000000  -0.000414  -0.000029  -0.085775   0.015327
    40  H    0.000000   0.000000   0.000000   0.000000   0.000000   0.000000
    41  H    0.000000  -0.000010  -0.000011   0.000000  -0.000009   0.000000
    42  H    0.000000   0.000000   0.000000   0.000000   0.000000   0.000000
    43  H    0.000000   0.000000   0.000000   0.000000   0.000001   0.000000
    44  H    0.000000   0.000000   0.000005   0.000000  -0.000073   0.000000
    45  H    0.000000   0.000000  -0.000087   0.000000   0.000493   0.000013
    46  H    0.000000   0.000000  -0.000036   0.000000  -0.000076   0.000001
    47  H    0.000000   0.000042   0.001617  -0.000087  -0.000173   0.000004
    48  H    0.000016   0.004479   0.002716   0.000117  -0.000432  -0.000073
              25         26         27         28         29         30
     1  C    0.000000   0.000000   0.000000   0.000000   0.000000   0.000000
     2  C   -0.000001   0.000000   0.000000   0.000000   0.000000   0.000000
     3  C    0.000006   0.000000   0.000004   0.000000   0.000000   0.000000
     4  N    0.000064  -0.000025  -0.000132   0.000001   0.000000   0.000000
     5  C   -0.000004  -0.000021   0.000037   0.000001   0.000000   0.000000
     6  N   -0.000020   0.000023  -0.000268   0.000021   0.000000   0.000000
     7  C    0.000000   0.000010   0.000001   0.000002   0.000000   0.000000
     8  F    0.000000   0.000000   0.000000   0.000000   0.000000   0.000000
     9  F    0.000000   0.000000   0.000000   0.000000   0.000000   0.000000
    10  C    0.000000  -0.000005   0.000000   0.000001   0.000000   0.000000
    11  F    0.000000   0.000000   0.000000   0.000000   0.000000   0.000000
    12  O    0.000000   0.000000   0.000000   0.000000   0.000000   0.000000
    13  C    0.000000   0.000000   0.000000   0.000000   0.000000   0.000000
    14  F    0.000000   0.000000   0.000000   0.000000   0.000000   0.000000
    15  F    0.000000   0.000000   0.000000   0.000000   0.000000   0.000000
    16  F    0.000000   0.000000   0.000000   0.000000   0.000000   0.000000
    17  C    0.000000   0.000004   0.000000   0.000000   0.000000   0.000000
    18  F    0.000000   0.000000   0.000000   0.000000   0.000000   0.000000
    19  F    0.000000   0.000000   0.000000   0.000000   0.000000   0.000000
    20  F    0.000000  -0.000004   0.000000   0.000000   0.000000   0.000000
    21  C    0.000681   0.007372  -0.002422   0.008413   0.000155  -0.000003
    22  O    0.000008  -0.006668  -0.000820  -0.007021  -0.000039  -0.000003
    23  N   -0.039661  -0.049205  -0.068579  -0.000563   0.001679  -0.000005
    24  C    0.278756   0.268006   0.220295  -0.022759  -0.020022   0.000959
    25  F    9.094162  -0.042319  -0.037242   0.000281   0.000304  -0.000062
    26  F   -0.042319   9.120775  -0.023933  -0.000279  -0.000286   0.000016
    27  C   -0.037242  -0.023933   5.011693   0.227737   0.156350  -0.001826
    28  F    0.000281  -0.000279   0.227737   9.117264  -0.049747  -0.000370
    29  O    0.000304  -0.000286   0.156350  -0.049747   8.352293   0.237780
    30  C   -0.000062   0.000016  -0.001826  -0.000370   0.237780   3.825835
    31  F    0.000001   0.000000  -0.009320  -0.000017  -0.048271   0.300994
    32  F    0.000000   0.000000   0.000673  -0.000024  -0.039448   0.337653
    33  F    0.000000   0.000000   0.012620  -0.002614  -0.044766   0.295143
    34  C    0.004351   0.001515   0.171233  -0.016720  -0.029633  -0.004243
    35  F    0.000401   0.000000  -0.034397   0.000320   0.000533  -0.000290
    36  F   -0.000001  -0.000001  -0.025508  -0.000186  -0.001559   0.012475
    37  F   -0.000112   0.000002  -0.021881  -0.000351   0.000590   0.000054
    38  C    0.007787   0.000492  -0.001355  -0.000214   0.000045   0.000000
    39  O   -0.013038   0.000015  -0.005852   0.000006   0.000007   0.000000
    40  H    0.000000   0.000000   0.000000   0.000000   0.000000   0.000000
    41  H    0.000000   0.000000   0.000000   0.000000   0.000000   0.000000
    42  H    0.000000   0.000000   0.000000   0.000000   0.000000   0.000000
    43  H    0.000000   0.000000   0.000000   0.000000   0.000000   0.000000
    44  H   -0.000002   0.000000   0.000000   0.000000   0.000000   0.000000
    45  H    0.000001   0.000000  -0.000001   0.000000   0.000000   0.000000
    46  H    0.000000   0.000000   0.000000   0.000000   0.000000   0.000000
    47  H    0.000000   0.000000   0.000000   0.000000   0.000000   0.000000
    48  H   -0.000002  -0.000005   0.000005   0.000000   0.000000   0.000000
              31         32         33         34         35         36
     1  C    0.000000   0.000000   0.000000   0.000000   0.000000   0.000000
     2  C    0.000000   0.000000   0.000000   0.000000   0.000000   0.000000
     3  C    0.000000   0.000000   0.000000  -0.000005   0.000000   0.000000
     4  N    0.000000   0.000000   0.000000  -0.000071  -0.000005   0.000000
     5  C    0.000000   0.000000   0.000000  -0.000004   0.000000   0.000000
     6  N    0.000000   0.000000   0.000000   0.000024   0.000000   0.000000
     7  C    0.000000   0.000000   0.000000   0.000000   0.000000   0.000000
     8  F    0.000000   0.000000   0.000000   0.000000   0.000000   0.000000
     9  F    0.000000   0.000000   0.000000   0.000000   0.000000   0.000000
    10  C    0.000000   0.000000   0.000000   0.000000   0.000000   0.000000
    11  F    0.000000   0.000000   0.000000   0.000000   0.000000   0.000000
    12  O    0.000000   0.000000   0.000000   0.000000   0.000000   0.000000
    13  C    0.000000   0.000000   0.000000   0.000000   0.000000   0.000000
    14  F    0.000000   0.000000   0.000000   0.000000   0.000000   0.000000
    15  F    0.000000   0.000000   0.000000   0.000000   0.000000   0.000000
    16  F    0.000000   0.000000   0.000000   0.000000   0.000000   0.000000
    17  C    0.000000   0.000000   0.000000   0.000000   0.000000   0.000000
    18  F    0.000000   0.000000   0.000000   0.000000   0.000000   0.000000
    19  F    0.000000   0.000000   0.000000   0.000000   0.000000   0.000000
    20  F    0.000000   0.000000   0.000000   0.000000   0.000000   0.000000
    21  C    0.000000   0.000000   0.000001  -0.000369   0.000030   0.000003
    22  O    0.000000   0.000000   0.000000  -0.000158   0.000000   0.000000
    23  N    0.000000   0.000000   0.000000  -0.002115  -0.000408  -0.000016
    24  C   -0.000166  -0.000044   0.000188  -0.037338   0.002535   0.001481
    25  F    0.000001   0.000000   0.000000   0.004351   0.000401  -0.000001
    26  F    0.000000   0.000000   0.000000   0.001515   0.000000  -0.000001
    27  C   -0.009320   0.000673   0.012620   0.171233  -0.034397  -0.025508
    28  F   -0.000017  -0.000024  -0.002614  -0.016720   0.000320  -0.000186
    29  O   -0.048271  -0.039448  -0.044766  -0.029633   0.000533  -0.001559
    30  C    0.300994   0.337653   0.295143  -0.004243  -0.000290   0.012475
    31  F    9.065833  -0.037797  -0.033790   0.017660  -0.000427  -0.007765
    32  F   -0.037797   9.016672  -0.036397  -0.000012   0.000000  -0.000005
    33  F   -0.033790  -0.036397   9.060142  -0.004722   0.000011  -0.002128
    34  C    0.017660  -0.000012  -0.004722   4.255219   0.274152   0.272570
    35  F   -0.000427   0.000000   0.000011   0.274152   9.067657  -0.038818
    36  F   -0.007765  -0.000005  -0.002128   0.272570  -0.038818   9.087824
    37  F    0.000000   0.000000   0.000000   0.269579  -0.034480  -0.040175
    38  C    0.000000   0.000000   0.000000   0.002082  -0.000567   0.000009
    39  O    0.000000   0.000000   0.000000   0.009291  -0.000507  -0.000003
    40  H    0.000000   0.000000   0.000000   0.000000   0.000000   0.000000
    41  H    0.000000   0.000000   0.000000   0.000000   0.000000   0.000000
    42  H    0.000000   0.000000   0.000000   0.000000   0.000000   0.000000
    43  H    0.000000   0.000000   0.000000   0.000000   0.000000   0.000000
    44  H    0.000000   0.000000   0.000000   0.000000   0.000000   0.000000
    45  H    0.000000   0.000000   0.000000   0.000008  -0.000001   0.000000
    46  H    0.000000   0.000000   0.000000   0.000000   0.000000   0.000000
    47  H    0.000000   0.000000   0.000000   0.000000   0.000000   0.000000
    48  H    0.000000   0.000000   0.000000   0.000000   0.000000   0.000000
              37         38         39         40         41         42
     1  C    0.000000   0.000058   0.000070   0.388399   0.388792   0.390394
     2  C    0.000000  -0.004778  -0.003706  -0.028935  -0.035837  -0.037635
     3  C    0.000003  -0.024404   0.001970   0.004552  -0.004954  -0.005224
     4  N   -0.000965   0.302876  -0.094352  -0.000057   0.002685  -0.000250
     5  C    0.000042  -0.033753   0.002222  -0.000039  -0.000563   0.000126
     6  N   -0.000071  -0.004840   0.000061  -0.000001   0.000127   0.000005
     7  C    0.000000   0.000143   0.000001   0.000000   0.000002  -0.000001
     8  F    0.000000  -0.000003   0.000000   0.000000   0.000002   0.000000
     9  F    0.000000  -0.000012   0.000000   0.000000   0.000000   0.000000
    10  C    0.000000   0.000008   0.000000   0.000000   0.000001   0.000000
    11  F    0.000000   0.000000   0.000000   0.000000   0.000000   0.000000
    12  O    0.000000   0.000000   0.000000   0.000000   0.000000   0.000000
    13  C    0.000000   0.000000   0.000000   0.000000   0.000000   0.000000
    14  F    0.000000   0.000000   0.000000   0.000000   0.000000   0.000000
    15  F    0.000000   0.000000   0.000000   0.000000   0.000000   0.000000
    16  F    0.000000   0.000000   0.000000   0.000000   0.000000   0.000000
    17  C    0.000000  -0.000004   0.000000   0.000000  -0.000010   0.000000
    18  F    0.000000  -0.000001   0.000000   0.000000  -0.000022   0.000000
    19  F    0.000000   0.000000   0.000000   0.000000   0.000000   0.000000
    20  F    0.000000   0.000027   0.000000   0.000000  -0.000010   0.000000
    21  C    0.002216  -0.005786  -0.000414   0.000000  -0.000011   0.000000
    22  O   -0.000029  -0.000159  -0.000029   0.000000   0.000000   0.000000
    23  N   -0.002133   0.180189  -0.085775   0.000000  -0.000009   0.000000
    24  C   -0.004722  -0.005485   0.015327   0.000000   0.000000   0.000000
    25  F   -0.000112   0.007787  -0.013038   0.000000   0.000000   0.000000
    26  F    0.000002   0.000492   0.000015   0.000000   0.000000   0.000000
    27  C   -0.021881  -0.001355  -0.005852   0.000000   0.000000   0.000000
    28  F   -0.000351  -0.000214   0.000006   0.000000   0.000000   0.000000
    29  O    0.000590   0.000045   0.000007   0.000000   0.000000   0.000000
    30  C    0.000054   0.000000   0.000000   0.000000   0.000000   0.000000
    31  F    0.000000   0.000000   0.000000   0.000000   0.000000   0.000000
    32  F    0.000000   0.000000   0.000000   0.000000   0.000000   0.000000
    33  F    0.000000   0.000000   0.000000   0.000000   0.000000   0.000000
    34  C    0.269579   0.002082   0.009291   0.000000   0.000000   0.000000
    35  F   -0.034480  -0.000567  -0.000507   0.000000   0.000000   0.000000
    36  F   -0.040175   0.000009  -0.000003   0.000000   0.000000   0.000000
    37  F    9.073100   0.014605  -0.006989   0.000000   0.000000   0.000000
    38  C    0.014605   4.191156   0.555552  -0.000001   0.000201  -0.000008
    39  O   -0.006989   0.555552   8.149352   0.000000   0.000004  -0.000003
    40  H    0.000000  -0.000001   0.000000   0.582912  -0.027888  -0.028390
    41  H    0.000000   0.000201   0.000004  -0.027888   0.600242  -0.033149
    42  H    0.000000  -0.000008  -0.000003  -0.028390  -0.033149   0.598735
    43  H    0.000000   0.000014  -0.000031  -0.005949   0.005369  -0.003274
    44  H    0.000000   0.004562   0.005337  -0.001855  -0.005706   0.004917
    45  H    0.000010  -0.005756   0.009463  -0.000173  -0.000035   0.000061
    46  H    0.000000   0.004822   0.000440   0.000044  -0.000061   0.004890
    47  H    0.000000   0.002634  -0.000076  -0.000010  -0.000041   0.000421
    48  H    0.000000  -0.001116   0.000093   0.000037   0.002656  -0.000132
              43         44         45         46         47         48
     1  C   -0.038886  -0.039512   0.004802  -0.006437   0.000400  -0.000714
     2  C    0.385831   0.392445  -0.039633  -0.043494  -0.001254   0.001599
     3  C   -0.033097  -0.030820   0.387805   0.390856  -0.004105   0.003656
     4  N    0.004588  -0.009436  -0.036919  -0.038970  -0.033326  -0.058019
     5  C   -0.000023  -0.000196   0.005056  -0.005679   0.392914   0.393988
     6  N    0.000002  -0.000004  -0.000149   0.000287  -0.028378  -0.065707
     7  C    0.000000   0.000000   0.000001  -0.000013  -0.004424  -0.000297
     8  F    0.000000   0.000000   0.000000  -0.000024   0.011176  -0.000413
     9  F    0.000000   0.000000   0.000000   0.000000   0.000499  -0.000105
    10  C    0.000000   0.000000   0.000000   0.000000   0.000486   0.000037
    11  F    0.000000   0.000000   0.000000   0.000000   0.000001  -0.000001
    12  O    0.000000   0.000000   0.000000   0.000000  -0.000003  -0.000004
    13  C    0.000000   0.000000   0.000000   0.000000   0.000000   0.000001
    14  F    0.000000   0.000000   0.000000   0.000000   0.000000   0.000000
    15  F    0.000000   0.000000   0.000000   0.000000   0.000000   0.000000
    16  F    0.000000   0.000000   0.000000   0.000000   0.000000   0.000000
    17  C    0.000000   0.000000   0.000000   0.000000  -0.000112   0.001770
    18  F    0.000000   0.000000   0.000000   0.000000  -0.000086   0.003593
    19  F    0.000000   0.000000   0.000000   0.000000   0.000000   0.000016
    20  F    0.000000   0.000000   0.000000   0.000000   0.000042   0.004479
    21  C    0.000000   0.000005  -0.000087  -0.000036   0.001617   0.002716
    22  O    0.000000   0.000000   0.000000   0.000000  -0.000087   0.000117
    23  N    0.000001  -0.000073   0.000493  -0.000076  -0.000173  -0.000432
    24  C    0.000000   0.000000   0.000013   0.000001   0.000004  -0.000073
    25  F    0.000000  -0.000002   0.000001   0.000000   0.000000  -0.000002
    26  F    0.000000   0.000000   0.000000   0.000000   0.000000  -0.000005
    27  C    0.000000   0.000000  -0.000001   0.000000   0.000000   0.000005
    28  F    0.000000   0.000000   0.000000   0.000000   0.000000   0.000000
    29  O    0.000000   0.000000   0.000000   0.000000   0.000000   0.000000
    30  C    0.000000   0.000000   0.000000   0.000000   0.000000   0.000000
    31  F    0.000000   0.000000   0.000000   0.000000   0.000000   0.000000
    32  F    0.000000   0.000000   0.000000   0.000000   0.000000   0.000000
    33  F    0.000000   0.000000   0.000000   0.000000   0.000000   0.000000
    34  C    0.000000   0.000000   0.000008   0.000000   0.000000   0.000000
    35  F    0.000000   0.000000  -0.000001   0.000000   0.000000   0.000000
    36  F    0.000000   0.000000   0.000000   0.000000   0.000000   0.000000
    37  F    0.000000   0.000000   0.000010   0.000000   0.000000   0.000000
    38  C    0.000014   0.004562  -0.005756   0.004822   0.002634  -0.001116
    39  O   -0.000031   0.005337   0.009463   0.000440  -0.000076   0.000093
    40  H   -0.005949  -0.001855  -0.000173   0.000044  -0.000010   0.000037
    41  H    0.005369  -0.005706  -0.000035  -0.000061  -0.000041   0.002656
    42  H   -0.003274   0.004917   0.000061   0.004890   0.000421  -0.000132
    43  H    0.603293  -0.029694  -0.002996  -0.000401   0.000016  -0.000031
    44  H   -0.029694   0.583106  -0.003005   0.004559   0.000020   0.000200
    45  H   -0.002996  -0.003005   0.562020  -0.026722   0.000397  -0.000363
    46  H   -0.000401   0.004559  -0.026722   0.582047   0.005265  -0.000327
    47  H    0.000016   0.000020   0.000397   0.005265   0.522445  -0.038727
    48  H   -0.000031   0.000200  -0.000363  -0.000327  -0.038727   0.605304
 Mulliken charges:
               1
     1  C   -0.330503
     2  C   -0.182548
     3  C   -0.062386
     4  N   -0.521561
     5  C    0.124521
     6  N   -0.600852
     7  C    0.751309
     8  F   -0.273734
     9  F   -0.262952
    10  C    0.426115
    11  F   -0.273996
    12  O   -0.478427
    13  C    0.991466
    14  F   -0.247473
    15  F   -0.238131
    16  F   -0.247613
    17  C    0.814366
    18  F   -0.248127
    19  F   -0.249417
    20  F   -0.243722
    21  C    0.830598
    22  O   -0.504108
    23  N   -0.646559
    24  C    0.749879
    25  F   -0.254341
    26  F   -0.275478
    27  C    0.432889
    28  F   -0.253180
    29  O   -0.515963
    30  C    0.995895
    31  F   -0.246936
    32  F   -0.241271
    33  F   -0.243688
    34  C    0.817705
    35  F   -0.235740
    36  F   -0.258198
    37  F   -0.248291
    38  C    0.820980
    39  O   -0.538436
    40  H    0.117354
    41  H    0.108218
    42  H    0.108515
    43  H    0.115268
    44  H    0.125153
    45  H    0.145710
    46  H    0.129029
    47  H    0.172464
    48  H    0.146200
 Sum of Mulliken charges =   0.00000
 Mulliken charges with hydrogens summed into heavy atoms:
               1
     1  C    0.003584
     2  C    0.057873
     3  C    0.212353
     4  N   -0.521561
     5  C    0.443185
     6  N   -0.600852
     7  C    0.751309
     8  F   -0.273734
     9  F   -0.262952
    10  C    0.426115
    11  F   -0.273996
    12  O   -0.478427
    13  C    0.991466
    14  F   -0.247473
    15  F   -0.238131
    16  F   -0.247613
    17  C    0.814366
    18  F   -0.248127
    19  F   -0.249417
    20  F   -0.243722
    21  C    0.830598
    22  O   -0.504108
    23  N   -0.646559
    24  C    0.749879
    25  F   -0.254341
    26  F   -0.275478
    27  C    0.432889
    28  F   -0.253180
    29  O   -0.515963
    30  C    0.995895
    31  F   -0.246936
    32  F   -0.241271
    33  F   -0.243688
    34  C    0.817705
    35  F   -0.235740
    36  F   -0.258198
    37  F   -0.248291
    38  C    0.820980
    39  O   -0.538436
 Electronic spatial extent (au):  <R**2>=          19133.5333
 Charge=              0.0000 electrons
 Dipole moment (field-independent basis, Debye):
    X=              4.2574    Y=              4.9648    Z=             -0.6447  Tot=              6.5719
 Quadrupole moment (field-independent basis, Debye-Ang):
   XX=           -217.9790   YY=           -203.8288   ZZ=           -210.9274
   XY=              8.5572   XZ=             -3.7384   YZ=              2.1549
 Traceless Quadrupole moment (field-independent basis, Debye-Ang):
   XX=             -7.0673   YY=              7.0829   ZZ=             -0.0156
   XY=              8.5572   XZ=             -3.7384   YZ=              2.1549
 Octapole moment (field-independent basis, Debye-Ang**2):
  XXX=            138.4847  YYY=            491.3570  ZZZ=           -112.2038  XYY=             65.8978
  XXY=            138.7054  XXZ=            -33.0271  XZZ=             39.8548  YZZ=            153.6979
  YYZ=            -37.9631  XYZ=              2.5350
 Hexadecapole moment (field-independent basis, Debye-Ang**3):
 XXXX=         -11535.1913 YYYY=          -7030.6933 ZZZZ=          -1661.7677 XXXY=            161.6385
 XXXZ=            459.1351 YYYX=            134.0489 YYYZ=            434.9344 ZZZX=            472.3994
 ZZZY=            429.8140 XXYY=          -3137.9553 XXZZ=          -2196.1905 YYZZ=          -1473.4651
 XXYZ=            152.2007 YYXZ=            143.9918 ZZXY=             38.2801
 N-N= 5.929687941972D+03 E-N=-1.847793356751D+04  KE= 2.779895311627D+03
 No NMR shielding tensors so no spin-rotation constants.
 Leave Link  601 at Sun Mar  3 18:25:06 2024, MaxMem=  5368709120 cpu:         4.2
 (Enter /home/k0335/k033513/app/g09/l9999.exe)
 1\1\GINC-C18U05N1\SP\RCAM-B3LYP\6-31G(d,p)\C14H9F18N3O4\K033513\03-Mar
 -2024\0\\#p CAM-B3LYP/6-31G(d,p) SCRF=(PCM,Solvent=Generic,Read) NoSym
 m out=wfn\\Title A1303169711_0\\0,1\C,0,1.507388,4.152387,-1.886993\C,
 0,0.164865,4.232348,-1.177876\C,0,0.146189,3.545615,0.190617\N,0,0.151
 009,2.083853,0.139908\C,0,1.402261,1.39077,0.082548\N,0,1.268083,0.078
 497,0.631161\C,0,2.446914,-0.558049,1.208683\F,0,3.433051,0.392139,1.2
 76455\F,0,2.159876,-0.820378,2.518233\C,0,3.079426,-1.827369,0.55881\F
 ,0,4.306667,-2.008435,1.154205\O,0,2.34193,-2.998961,0.894475\C,0,2.70
 6729,-4.119567,0.141537\F,0,2.227094,-3.992417,-1.107406\F,0,2.17383,-
 5.219853,0.702395\F,0,4.042579,-4.25545,0.103365\C,0,3.297549,-1.48042
 6,-0.916612\F,0,3.944663,-0.299384,-1.069657\F,0,4.034207,-2.408219,-1
 .566109\F,0,2.12842,-1.360996,-1.588542\C,0,0.136173,-0.641167,0.36517
 6\O,0,0.065358,-1.82816,0.657409\N,0,-0.894441,0.036511,-0.244134\C,0,
 -2.073452,-0.727571,-0.610095\F,0,-2.799977,-0.046179,-1.549504\F,0,-1
 .624295,-1.815821,-1.326992\C,0,-3.041446,-1.25818,0.485369\F,0,-2.358
 741,-2.047651,1.364329\O,0,-3.979284,-2.129803,-0.177191\C,0,-5.005296
 ,-2.593274,0.657383\F,0,-5.949517,-1.642787,0.761019\F,0,-5.557855,-3.
 683134,0.09178\F,0,-4.545955,-2.923214,1.873922\C,0,-3.644949,-0.07434
 3,1.24157\F,0,-4.386782,0.721279,0.446325\F,0,-4.459084,-0.487399,2.24
 4571\F,0,-2.693111,0.677591,1.840198\C,0,-1.004194,1.406687,-0.183606\
 O,0,-2.067653,1.996043,-0.35494\H,0,1.500803,4.795291,-2.773312\H,0,1.
 722474,3.13595,-2.224807\H,0,2.320921,4.484571,-1.234663\H,0,-0.073589
 ,5.292394,-1.027744\H,0,-0.613979,3.821191,-1.829715\H,0,-0.773115,3.8
 49242,0.707039\H,0,0.979633,3.885298,0.815931\H,0,2.132947,1.96928,0.6
 54017\H,0,1.725675,1.301246,-0.958531\\Version=ES64L-G09RevD.01\HF=-28
 00.384733\RMSD=5.813e-09\Dipole=1.6749714,1.9532956,-0.2536376\Quadrup
 ole=-5.2543486,5.2659774,-0.0116288,6.3620379,-2.7793787,1.6021338\PG=
 C01 [X(C14H9F18N3O4)]\\@

 Writing a WFN file to "A1303169711/A1303169711_0.wfn"


 THE WORLD IS MADE UP OF THE WILLS, THE WON'TS, AND THE CANT'S:
 THE WILLS DO EVERYTHING,
 THE WON'TS DO NOTHING,
 THE CAN'TS CAN'T DO ANYTHING.

                               -- FROM WALT DISNEY'S "BLACK HOLE"
 Job cpu time:       0 days  0 hours 23 minutes 44.2 seconds.
 File lengths (MBytes):  RWF=    440 Int=      0 D2E=      0 Chk=     16 Scr=      1
 Normal termination of Gaussian 09 at Sun Mar  3 18:25:07 2024.
