 Entering Gaussian System, Link 0=g09
 Initial command:
 /home/k0335/k033513/app/g09/l1.exe "/home/k0335/k033513/app/g09/scratch/Gau-2961457.inp" -scrdir="/home/k0335/k033513/app/g09/scratch/"
 Default is to use a total of  36 processors:
                               36 via shared-memory
                                1 via Linda
 Entering Link 1 = /home/k0335/k033513/app/g09/l1.exe PID=   2961460.
  
 Copyright (c) 1988,1990,1992,1993,1995,1998,2003,2009,2013,
            Gaussian, Inc.  All Rights Reserved.
  
 This is part of the Gaussian(R) 09 program.  It is based on
 the Gaussian(R) 03 system (copyright 2003, Gaussian, Inc.),
 the Gaussian(R) 98 system (copyright 1998, Gaussian, Inc.),
 the Gaussian(R) 94 system (copyright 1995, Gaussian, Inc.),
 the Gaussian 92(TM) system (copyright 1992, Gaussian, Inc.),
 the Gaussian 90(TM) system (copyright 1990, Gaussian, Inc.),
 the Gaussian 88(TM) system (copyright 1988, Gaussian, Inc.),
 the Gaussian 86(TM) system (copyright 1986, Carnegie Mellon
 University), and the Gaussian 82(TM) system (copyright 1983,
 Carnegie Mellon University). Gaussian is a federally registered
 trademark of Gaussian, Inc.
  
 This software contains proprietary and confidential information,
 including trade secrets, belonging to Gaussian, Inc.
  
 This software is provided under written license and may be
 used, copied, transmitted, or stored only in accord with that
 written license.
  
 The following legend is applicable only to US Government
 contracts under FAR:
  
                    RESTRICTED RIGHTS LEGEND
  
 Use, reproduction and disclosure by the US Government is
 subject to restrictions as set forth in subparagraphs (a)
 and (c) of the Commercial Computer Software - Restricted
 Rights clause in FAR 52.227-19.
  
 Gaussian, Inc.
 340 Quinnipiac St., Bldg. 40, Wallingford CT 06492
  
  
 ---------------------------------------------------------------
 Warning -- This program may not be used in any manner that
 competes with the business of Gaussian, Inc. or will provide
 assistance to any competitor of Gaussian, Inc.  The licensee
 of this program is prohibited from giving any competitor of
 Gaussian, Inc. access to this program.  By using this program,
 the user acknowledges that Gaussian, Inc. is engaged in the
 business of creating and licensing software in the field of
 computational chemistry and represents and warrants to the
 licensee that it is not a competitor of Gaussian, Inc. and that
 it will not use this program in any manner prohibited above.
 ---------------------------------------------------------------
  

 Cite this work as:
 Gaussian 09, Revision D.01,
 M. J. Frisch, G. W. Trucks, H. B. Schlegel, G. E. Scuseria, 
 M. A. Robb, J. R. Cheeseman, G. Scalmani, V. Barone, B. Mennucci, 
 G. A. Petersson, H. Nakatsuji, M. Caricato, X. Li, H. P. Hratchian, 
 A. F. Izmaylov, J. Bloino, G. Zheng, J. L. Sonnenberg, M. Hada, 
 M. Ehara, K. Toyota, R. Fukuda, J. Hasegawa, M. Ishida, T. Nakajima, 
 Y. Honda, O. Kitao, H. Nakai, T. Vreven, J. A. Montgomery, Jr., 
 J. E. Peralta, F. Ogliaro, M. Bearpark, J. J. Heyd, E. Brothers, 
 K. N. Kudin, V. N. Staroverov, T. Keith, R. Kobayashi, J. Normand, 
 K. Raghavachari, A. Rendell, J. C. Burant, S. S. Iyengar, J. Tomasi, 
 M. Cossi, N. Rega, J. M. Millam, M. Klene, J. E. Knox, J. B. Cross, 
 V. Bakken, C. Adamo, J. Jaramillo, R. Gomperts, R. E. Stratmann, 
 O. Yazyev, A. J. Austin, R. Cammi, C. Pomelli, J. W. Ochterski, 
 R. L. Martin, K. Morokuma, V. G. Zakrzewski, G. A. Voth, 
 P. Salvador, J. J. Dannenberg, S. Dapprich, A. D. Daniels, 
 O. Farkas, J. B. Foresman, J. V. Ortiz, J. Cioslowski, 
 and D. J. Fox, Gaussian, Inc., Wallingford CT, 2013.
 
 ******************************************
 Gaussian 09:  ES64L-G09RevD.01 24-Apr-2013
                 3-Feb-2025 
 ******************************************
 %nprocshared=24
 Will use up to   24 processors via shared memory.
 %mem=40GB
 %rwf=cytop/DIPEDA1/DIPEDA1_neu.rwf
 %nosave
 %chk=cytop/DIPEDA1/DIPEDA1_neu.chk
 ----------------------------------------------------------------------
 #p CAM-B3LYP/6-31G(d,p) SCRF=(PCM,Solvent=Generic,Read) NoSymm out=wfn
 ----------------------------------------------------------------------
 1/38=1,40=2/1;
 2/12=2,15=1,17=6,18=5,40=1/2;
 3/5=1,6=6,7=101,11=2,16=1,25=1,30=1,70=2203,72=-2,74=-40/1,2,3;
 4//1;
 5/5=2,38=5/2;
 6/7=2,8=2,9=2,10=2,28=1/1;
 99/5=1,6=100,9=1/99;
 Leave Link    1 at Mon Feb  3 21:49:36 2025, MaxMem=  5368709120 cpu:         1.0
 (Enter /home/k0335/k033513/app/g09/l101.exe)
 -----------------
 Title DIPEDA1_neu
 -----------------
 Symbolic Z-matrix:
 Charge =  0 Multiplicity = 1
 F                     2.73753  -2.57341   2.20288 
 C                     3.35467  -1.42803   1.85222 
 F                     4.346    -1.21627   2.73724 
 C                     3.83056  -1.42468   0.41691 
 F                     4.93318  -2.14736   0.17493 
 F                     2.84704  -1.9587   -0.36189 
 C                     3.94957   0.03879   0.10675 
 F                     3.73455   0.25634  -1.21817 
 C                     5.29581   0.64209   0.46573 
 F                     5.5276    0.52675   1.80048 
 C                     6.42107   0.01275  -0.35878 
 O                     7.26812  -0.74846   0.37099 
 O                     6.60056   0.12583  -1.56157 
 F                     5.24728   1.9876    0.22518 
 C                     2.81792   0.61255   0.96715 
 F                     3.29628   1.67448   1.68506 
 C                     1.60214   1.1377    0.17776 
 F                     0.7435    1.73735   1.06807 
 C                     0.85641   0.02492  -0.57038 
 N                    -0.03415  -0.69263   0.21347 
 C                    -0.93772  -1.65952  -0.39195 
 C                    -2.14613  -0.97735  -1.06292 
 N                    -2.81573  -0.03807  -0.11442 
 C                    -2.73667   1.34734  -0.64655 
 C                    -2.6647    2.40827   0.45847 
 C                    -3.78157   1.70236  -1.70907 
 C                    -4.15013  -0.54253   0.30709 
 C                    -4.03353  -1.91857   0.99687 
 C                    -4.90007   0.36399   1.2946 
 O                     1.05821  -0.24655  -1.7515 
 F                     2.0021    2.1397   -0.6584 
 O                     2.43551  -0.35023   1.97444 
 H                     7.94052  -1.0673   -0.26949 
 H                    -0.43963  -0.18933   1.00062 
 H                    -0.38836  -2.25355  -1.13017 
 H                    -1.26119  -2.33054   0.4093 
 H                    -2.83422  -1.73607  -1.45453 
 H                    -1.78492  -0.45667  -1.95936 
 H                    -1.75882   1.4506   -1.13764 
 H                    -2.26789   3.34418   0.04809 
 H                    -1.98708   2.09505   1.26053 
 H                    -3.63437   2.6474    0.89762 
 H                    -3.56385   2.68702  -2.13851 
 H                    -3.77174   0.97876  -2.53087 
 H                    -4.79633   1.74132  -1.30478 
 H                    -4.78777  -0.66764  -0.57802 
 H                    -5.01313  -2.2597    1.35204 
 H                    -3.3628   -1.8712    1.86213 
 H                    -3.66846  -2.69701   0.32128 
 H                    -5.2569    1.2805    0.82112 
 H                    -4.27301   0.62435   2.15417 
 H                    -5.79523  -0.13666   1.68253 
 
 NAtoms=     52 NQM=       52 NQMF=       0 NMMI=      0 NMMIF=      0
                NMic=       0 NMicF=      0.
                    Isotopes and Nuclear Properties:
 (Nuclear quadrupole moments (NQMom) in fm**2, nuclear magnetic moments (NMagM)
  in nuclear magnetons)

  Atom         1           2           3           4           5           6           7           8           9          10
 IAtWgt=          19          12          19          12          19          19          12          19          12          19
 AtmWgt=  18.9984033  12.0000000  18.9984033  12.0000000  18.9984033  18.9984033  12.0000000  18.9984033  12.0000000  18.9984033
 NucSpn=           1           0           1           0           1           1           0           1           0           1
 AtZEff=   0.0000000   0.0000000   0.0000000   0.0000000   0.0000000   0.0000000   0.0000000   0.0000000   0.0000000   0.0000000
 NQMom=    0.0000000   0.0000000   0.0000000   0.0000000   0.0000000   0.0000000   0.0000000   0.0000000   0.0000000   0.0000000
 NMagM=    2.6288670   0.0000000   2.6288670   0.0000000   2.6288670   2.6288670   0.0000000   2.6288670   0.0000000   2.6288670
 AtZNuc=   9.0000000   6.0000000   9.0000000   6.0000000   9.0000000   9.0000000   6.0000000   9.0000000   6.0000000   9.0000000

  Atom        11          12          13          14          15          16          17          18          19          20
 IAtWgt=          12          16          16          19          12          19          12          19          12          14
 AtmWgt=  12.0000000  15.9949146  15.9949146  18.9984033  12.0000000  18.9984033  12.0000000  18.9984033  12.0000000  14.0030740
 NucSpn=           0           0           0           1           0           1           0           1           0           2
 AtZEff=   0.0000000   0.0000000   0.0000000   0.0000000   0.0000000   0.0000000   0.0000000   0.0000000   0.0000000   0.0000000
 NQMom=    0.0000000   0.0000000   0.0000000   0.0000000   0.0000000   0.0000000   0.0000000   0.0000000   0.0000000   2.0440000
 NMagM=    0.0000000   0.0000000   0.0000000   2.6288670   0.0000000   2.6288670   0.0000000   2.6288670   0.0000000   0.4037610
 AtZNuc=   6.0000000   8.0000000   8.0000000   9.0000000   6.0000000   9.0000000   6.0000000   9.0000000   6.0000000   7.0000000

  Atom        21          22          23          24          25          26          27          28          29          30
 IAtWgt=          12          12          14          12          12          12          12          12          12          16
 AtmWgt=  12.0000000  12.0000000  14.0030740  12.0000000  12.0000000  12.0000000  12.0000000  12.0000000  12.0000000  15.9949146
 NucSpn=           0           0           2           0           0           0           0           0           0           0
 AtZEff=   0.0000000   0.0000000   0.0000000   0.0000000   0.0000000   0.0000000   0.0000000   0.0000000   0.0000000   0.0000000
 NQMom=    0.0000000   0.0000000   2.0440000   0.0000000   0.0000000   0.0000000   0.0000000   0.0000000   0.0000000   0.0000000
 NMagM=    0.0000000   0.0000000   0.4037610   0.0000000   0.0000000   0.0000000   0.0000000   0.0000000   0.0000000   0.0000000
 AtZNuc=   6.0000000   6.0000000   7.0000000   6.0000000   6.0000000   6.0000000   6.0000000   6.0000000   6.0000000   8.0000000

  Atom        31          32          33          34          35          36          37          38          39          40
 IAtWgt=          19          16           1           1           1           1           1           1           1           1
 AtmWgt=  18.9984033  15.9949146   1.0078250   1.0078250   1.0078250   1.0078250   1.0078250   1.0078250   1.0078250   1.0078250
 NucSpn=           1           0           1           1           1           1           1           1           1           1
 AtZEff=   0.0000000   0.0000000   0.0000000   0.0000000   0.0000000   0.0000000   0.0000000   0.0000000   0.0000000   0.0000000
 NQMom=    0.0000000   0.0000000   0.0000000   0.0000000   0.0000000   0.0000000   0.0000000   0.0000000   0.0000000   0.0000000
 NMagM=    2.6288670   0.0000000   2.7928460   2.7928460   2.7928460   2.7928460   2.7928460   2.7928460   2.7928460   2.7928460
 AtZNuc=   9.0000000   8.0000000   1.0000000   1.0000000   1.0000000   1.0000000   1.0000000   1.0000000   1.0000000   1.0000000

  Atom        41          42          43          44          45          46          47          48          49          50
 IAtWgt=           1           1           1           1           1           1           1           1           1           1
 AtmWgt=   1.0078250   1.0078250   1.0078250   1.0078250   1.0078250   1.0078250   1.0078250   1.0078250   1.0078250   1.0078250
 NucSpn=           1           1           1           1           1           1           1           1           1           1
 AtZEff=   0.0000000   0.0000000   0.0000000   0.0000000   0.0000000   0.0000000   0.0000000   0.0000000   0.0000000   0.0000000
 NQMom=    0.0000000   0.0000000   0.0000000   0.0000000   0.0000000   0.0000000   0.0000000   0.0000000   0.0000000   0.0000000
 NMagM=    2.7928460   2.7928460   2.7928460   2.7928460   2.7928460   2.7928460   2.7928460   2.7928460   2.7928460   2.7928460
 AtZNuc=   1.0000000   1.0000000   1.0000000   1.0000000   1.0000000   1.0000000   1.0000000   1.0000000   1.0000000   1.0000000

  Atom        51          52
 IAtWgt=           1           1
 AtmWgt=   1.0078250   1.0078250
 NucSpn=           1           1
 AtZEff=   0.0000000   0.0000000
 NQMom=    0.0000000   0.0000000
 NMagM=    2.7928460   2.7928460
 AtZNuc=   1.0000000   1.0000000
 Leave Link  101 at Mon Feb  3 21:49:36 2025, MaxMem=  5368709120 cpu:         0.8
 (Enter /home/k0335/k033513/app/g09/l202.exe)
 Symmetry turned off by external request.
 Stoichiometry    C16H20F10N2O4
 Framework group  C1[X(C16H20F10N2O4)]
 Deg. of freedom   150
 Full point group                 C1      NOp   1
                          Input orientation:                          
 ---------------------------------------------------------------------
 Center     Atomic      Atomic             Coordinates (Angstroms)
 Number     Number       Type             X           Y           Z
 ---------------------------------------------------------------------
      1          9           0        2.737526   -2.573413    2.202880
      2          6           0        3.354669   -1.428027    1.852215
      3          9           0        4.345999   -1.216272    2.737237
      4          6           0        3.830560   -1.424675    0.416910
      5          9           0        4.933181   -2.147357    0.174934
      6          9           0        2.847036   -1.958701   -0.361885
      7          6           0        3.949565    0.038794    0.106748
      8          9           0        3.734549    0.256341   -1.218171
      9          6           0        5.295811    0.642086    0.465733
     10          9           0        5.527603    0.526753    1.800481
     11          6           0        6.421068    0.012748   -0.358784
     12          8           0        7.268120   -0.748461    0.370987
     13          8           0        6.600557    0.125829   -1.561571
     14          9           0        5.247285    1.987604    0.225175
     15          6           0        2.817923    0.612548    0.967154
     16          9           0        3.296275    1.674483    1.685060
     17          6           0        1.602140    1.137700    0.177755
     18          9           0        0.743498    1.737353    1.068070
     19          6           0        0.856408    0.024921   -0.570382
     20          7           0       -0.034153   -0.692627    0.213467
     21          6           0       -0.937723   -1.659522   -0.391953
     22          6           0       -2.146134   -0.977346   -1.062918
     23          7           0       -2.815730   -0.038071   -0.114423
     24          6           0       -2.736671    1.347340   -0.646546
     25          6           0       -2.664700    2.408270    0.458469
     26          6           0       -3.781573    1.702364   -1.709072
     27          6           0       -4.150133   -0.542531    0.307094
     28          6           0       -4.033527   -1.918573    0.996865
     29          6           0       -4.900066    0.363993    1.294600
     30          8           0        1.058214   -0.246554   -1.751500
     31          9           0        2.002095    2.139704   -0.658400
     32          8           0        2.435510   -0.350233    1.974440
     33          1           0        7.940517   -1.067295   -0.269490
     34          1           0       -0.439633   -0.189331    1.000615
     35          1           0       -0.388355   -2.253550   -1.130171
     36          1           0       -1.261193   -2.330540    0.409295
     37          1           0       -2.834222   -1.736070   -1.454534
     38          1           0       -1.784924   -0.456674   -1.959355
     39          1           0       -1.758816    1.450604   -1.137636
     40          1           0       -2.267893    3.344177    0.048091
     41          1           0       -1.987077    2.095046    1.260529
     42          1           0       -3.634365    2.647400    0.897616
     43          1           0       -3.563845    2.687022   -2.138508
     44          1           0       -3.771743    0.978761   -2.530869
     45          1           0       -4.796325    1.741324   -1.304779
     46          1           0       -4.787771   -0.667642   -0.578021
     47          1           0       -5.013132   -2.259698    1.352035
     48          1           0       -3.362802   -1.871196    1.862133
     49          1           0       -3.668460   -2.697005    0.321283
     50          1           0       -5.256900    1.280502    0.821121
     51          1           0       -4.273013    0.624353    2.154175
     52          1           0       -5.795231   -0.136656    1.682532
 ---------------------------------------------------------------------
 Rotational constants (GHZ):      0.3055581      0.0780734      0.0736257
 Leave Link  202 at Mon Feb  3 21:49:36 2025, MaxMem=  5368709120 cpu:         0.0
 (Enter /home/k0335/k033513/app/g09/l301.exe)
 Standard basis: 6-31G(d,p) (6D, 7F)
 Ernie: Thresh=  0.10000D-02 Tol=  0.10000D-05 Strict=F.
   580 basis functions,  1036 primitive gaussians,   580 cartesian basis functions
   126 alpha electrons      126 beta electrons
       nuclear repulsion energy      4155.8601874467 Hartrees.
 IExCor=20419 DFT=T Ex+Corr=CAM-B3LYP ExCW=0 ScaHFX=  1.000000
 ScaDFX=  1.000000  1.000000  1.000000  0.810000 ScalE2=  1.000000  1.000000
 IRadAn=      0 IRanWt=     -1 IRanGd=            0 ICorTp=0 IEmpDi=  4
  HFx wShort=  0.000000 wLong=  0.330000 cFull=  0.190000 cShort=  0.000000 cLong=  0.460000
  DFx wShort=  0.000000 wLong=  0.330000 cFull=  0.190000 cShort=  0.000000 cLong=  0.460000
 NAtoms=   52 NActive=   52 NUniq=   52 SFac= 1.00D+00 NAtFMM=   60 NAOKFM=F Big=F
 Integral buffers will be    131072 words long.
 Raffenetti 2 integral format.
 Two-electron integral symmetry is turned off.
 Using the following non-standard input for PCM:
 eps=2.05
 --- end of non-standard input.
 ------------------------------------------------------------------------------
 Polarizable Continuum Model (PCM)
 =================================
 Model                : PCM (using non-symmetric T matrix).
 Atomic radii         : UFF (Universal Force Field).
 Polarization charges : Total charges.
 Charge compensation  : None.
 Solution method      : On-the-fly selection.
 Cavity type          : Scaled VdW (van der Waals Surface) (Alpha=1.100).
 Cavity algorithm     : GePol (No added spheres)
                        Default sphere list used, NSphG=   52.
                        Lebedev-Laikov grids with approx.  5.0 points / Ang**2.
                        Smoothing algorithm: Karplus/York (Gamma=1.0000).
                        Polarization charges: spherical gaussians, with
                                              point-specific exponents (IZeta= 3).
                        Self-potential: point-specific (ISelfS= 7).
                        Self-field    : sphere-specific E.n sum rule (ISelfD= 2).
 Solvent              : Generic,
                        Eps                           =   2.050000
                        Eps(infinity)                 =   0.000000
                        RSolv                         =   0.000000 Ang.
                        Molar volume                  =   0.000000 cm**3/mol
                        Thermal expansion coefficient =   0.000000 K**-1
                        Absolute temperature          = 298.150000 K
                        Numeral density               =   0.000000 Ang**-3
                        Hydrogen bond acidity         =   0.000000
                        Hydrogen bond basicity        =   0.000000
                        Surface tension at interface  =   0.000000 (cal/mol)*Ang**-2
                        Carbon aromaticity            =   0.000000
                        Electronegative halogenicity  =   0.000000
 ------------------------------------------------------------------------------
 GePol: Number of generator spheres                  =      52
 GePol: Total number of spheres                      =      52
 GePol: Number of exposed spheres                    =      52 (100.00%)
 GePol: Number of points                             =    3523
 GePol: Average weight of points                     =       0.13
 GePol: Minimum weight of points                     =   0.48D-09
 GePol: Maximum weight of points                     =    0.20577
 GePol: Number of points with low weight             =     209
 GePol: Fraction of low-weight points (<1% of avg)   =       5.93%
 GePol: Cavity surface area                          =    449.748 Ang**2
 GePol: Cavity volume                                =    532.667 Ang**3
 Leave Link  301 at Mon Feb  3 21:49:37 2025, MaxMem=  5368709120 cpu:         0.7
 (Enter /home/k0335/k033513/app/g09/l302.exe)
 NPDir=0 NMtPBC=     1 NCelOv=     1 NCel=       1 NClECP=     1 NCelD=      1
         NCelK=      1 NCelE2=     1 NClLst=     1 CellRange=     0.0.
 One-electron integrals computed using PRISM.
 NBasis=   580 RedAO= T EigKep=  7.72D-04  NBF=   580
 NBsUse=   580 1.00D-06 EigRej= -1.00D+00 NBFU=   580
 Precomputing XC quadrature grid using
 IXCGrd= 4 IRadAn=           0 IRanWt=          -1 IRanGd=           0 AccXCQ= 0.00D+00.
 Generated NRdTot=       0 NPtTot=           0 NUsed=           0 NTot=          32
 NSgBfM=   559   559   559   559   560 MxSgAt=    52 MxSgA2=    52.
 Leave Link  302 at Mon Feb  3 21:49:37 2025, MaxMem=  5368709120 cpu:        12.1
 (Enter /home/k0335/k033513/app/g09/l303.exe)
 DipDrv:  MaxL=1.
 Leave Link  303 at Mon Feb  3 21:49:37 2025, MaxMem=  5368709120 cpu:         0.9
 (Enter /home/k0335/k033513/app/g09/l401.exe)
 ExpMin= 1.61D-01 ExpMax= 7.00D+03 ExpMxC= 1.05D+03 IAcc=1 IRadAn=         1 AccDes= 0.00D+00
 Harris functional with IExCor=20419 and IRadAn=       1 diagonalized for initial guess.
 HarFok:  IExCor=20419 AccDes= 0.00D+00 IRadAn=         1 IDoV= 1 UseB2=F ITyADJ=14
 ICtDFT=  3500011 ScaDFX=  1.000000  1.000000  1.000000  1.000000
 FoFCou: FMM=F IPFlag=           0 FMFlag=      100000 FMFlg1=           0
         NFxFlg=           0 DoJE=T BraDBF=F KetDBF=T FulRan=T
         wScrn=  0.000000 ICntrl=     500 IOpCl=  0 I1Cent=   200000004 NGrid=           0
         NMat0=    1 NMatS0=      1 NMatT0=    0 NMatD0=    1 NMtDS0=    0 NMtDT0=    0
 Symmetry not used in FoFCou.
 Harris En= -1963.94098252826    
 JPrj=0 DoOrth=F DoCkMO=F.
 Leave Link  401 at Mon Feb  3 21:49:38 2025, MaxMem=  5368709120 cpu:        14.0
 (Enter /home/k0335/k033513/app/g09/l502.exe)
 Closed shell SCF:
 Using DIIS extrapolation, IDIIS=  1040.
 Two-electron integral symmetry not used.
 IVT=     1045254 IEndB=     1045254 NGot=  5368709120 MDV=  5368017487
 LenX=  5368017487 LenY=  5367680507
 Requested convergence on RMS density matrix=1.00D-08 within 128 cycles.
 Requested convergence on MAX density matrix=1.00D-06.
 Requested convergence on             energy=1.00D-06.
 No special actions if energy rises.
 Fock matrices will be formed incrementally for  20 cycles.

 Cycle   1  Pass 1  IDiag  1:
 FoFJK:  IHMeth= 1 ICntrl=       0 DoSepK=T KAlg= 0 I1Cent=   0 FoldK=F
 IRaf=         1 NMat=   1 IRICut=       1 DoRegI=T DoRafI=F ISym2E= 0.
 FoFCou: FMM=F IPFlag=           0 FMFlag=      100000 FMFlg1=           0
         NFxFlg=           0 DoJE=T BraDBF=F KetDBF=F FulRan=T
         wScrn=  0.000000 ICntrl=     500 IOpCl=  0 I1Cent=           0 NGrid=           0
         NMat0=    1 NMatS0=      1 NMatT0=    0 NMatD0=    1 NMtDS0=    0 NMtDT0=    0
 Symmetry not used in FoFCou.
 Inv3:  Mode=1 IEnd=    37234587.
 Iteration    1 A*A^-1 deviation from unit magnitude is 8.55D-15 for    572.
 Iteration    1 A*A^-1 deviation from orthogonality  is 4.15D-15 for   3273    428.
 Iteration    1 A^-1*A deviation from unit magnitude is 9.33D-15 for    562.
 Iteration    1 A^-1*A deviation from orthogonality  is 2.64D-15 for   3270    433.
 E= -2029.20952558489    
 DIIS: error= 4.77D-02 at cycle   1 NSaved=   1.
 NSaved= 1 IEnMin= 1 EnMin= -2029.20952558489     IErMin= 1 ErrMin= 4.77D-02
 ErrMax= 4.77D-02  0.00D+00 EMaxC= 1.00D-01 BMatC= 1.67D+00 BMatP= 1.67D+00
 IDIUse=3 WtCom= 5.23D-01 WtEn= 4.77D-01
 Coeff-Com:  0.100D+01
 Coeff-En:   0.100D+01
 Coeff:      0.100D+01
 Gap=     0.479 Goal=   None    Shift=    0.000
 GapD=    0.479 DampG=2.000 DampE=0.500 DampFc=1.0000 IDamp=-1.
 RMSDP=2.67D-03 MaxDP=1.56D-01              OVMax= 1.24D-01

 Cycle   2  Pass 1  IDiag  1:
 RMSU=  2.66D-03    CP:  9.90D-01
 E= -2029.44877957653     Delta-E=       -0.239253991637 Rises=F Damp=F
 DIIS: error= 1.75D-02 at cycle   2 NSaved=   2.
 NSaved= 2 IEnMin= 2 EnMin= -2029.44877957653     IErMin= 2 ErrMin= 1.75D-02
 ErrMax= 1.75D-02  0.00D+00 EMaxC= 1.00D-01 BMatC= 6.31D-01 BMatP= 1.67D+00
 IDIUse=3 WtCom= 8.25D-01 WtEn= 1.75D-01
 Coeff-Com:  0.358D+00 0.642D+00
 Coeff-En:   0.349D+00 0.651D+00
 Coeff:      0.356D+00 0.644D+00
 Gap=     0.274 Goal=   None    Shift=    0.000
 RMSDP=1.25D-03 MaxDP=8.61D-02 DE=-2.39D-01 OVMax= 8.57D-02

 Cycle   3  Pass 1  IDiag  1:
 RMSU=  7.55D-04    CP:  9.98D-01  6.28D-01
 E= -2029.76368013775     Delta-E=       -0.314900561217 Rises=F Damp=F
 DIIS: error= 7.44D-03 at cycle   3 NSaved=   3.
 NSaved= 3 IEnMin= 3 EnMin= -2029.76368013775     IErMin= 3 ErrMin= 7.44D-03
 ErrMax= 7.44D-03  0.00D+00 EMaxC= 1.00D-01 BMatC= 1.11D-01 BMatP= 6.31D-01
 IDIUse=3 WtCom= 9.26D-01 WtEn= 7.44D-02
 Coeff-Com:  0.691D-01 0.311D+00 0.620D+00
 Coeff-En:   0.000D+00 0.106D+00 0.894D+00
 Coeff:      0.640D-01 0.296D+00 0.640D+00
 Gap=     0.293 Goal=   None    Shift=    0.000
 RMSDP=5.62D-04 MaxDP=4.04D-02 DE=-3.15D-01 OVMax= 6.64D-02

 Cycle   4  Pass 1  IDiag  1:
 RMSU=  3.03D-04    CP:  9.93D-01  7.22D-01  4.78D-01
 E= -2029.82901377020     Delta-E=       -0.065333632451 Rises=F Damp=F
 DIIS: error= 3.76D-03 at cycle   4 NSaved=   4.
 NSaved= 4 IEnMin= 4 EnMin= -2029.82901377020     IErMin= 4 ErrMin= 3.76D-03
 ErrMax= 3.76D-03  0.00D+00 EMaxC= 1.00D-01 BMatC= 1.13D-02 BMatP= 1.11D-01
 IDIUse=3 WtCom= 9.62D-01 WtEn= 3.76D-02
 Coeff-Com:  0.613D-02 0.949D-01 0.328D+00 0.571D+00
 Coeff-En:   0.000D+00 0.000D+00 0.405D-01 0.959D+00
 Coeff:      0.590D-02 0.914D-01 0.317D+00 0.586D+00
 Gap=     0.274 Goal=   None    Shift=    0.000
 RMSDP=1.68D-04 MaxDP=1.58D-02 DE=-6.53D-02 OVMax= 2.47D-02

 Cycle   5  Pass 1  IDiag  1:
 RMSU=  7.49D-05    CP:  9.93D-01  7.21D-01  6.17D-01  6.46D-01
 E= -2029.83692122668     Delta-E=       -0.007907456480 Rises=F Damp=F
 DIIS: error= 8.71D-04 at cycle   5 NSaved=   5.
 NSaved= 5 IEnMin= 5 EnMin= -2029.83692122668     IErMin= 5 ErrMin= 8.71D-04
 ErrMax= 8.71D-04  0.00D+00 EMaxC= 1.00D-01 BMatC= 6.44D-04 BMatP= 1.13D-02
 IDIUse=3 WtCom= 9.91D-01 WtEn= 8.71D-03
 Coeff-Com:  0.471D-03 0.383D-01 0.153D+00 0.327D+00 0.481D+00
 Coeff-En:   0.000D+00 0.000D+00 0.000D+00 0.000D+00 0.100D+01
 Coeff:      0.467D-03 0.379D-01 0.152D+00 0.324D+00 0.486D+00
 Gap=     0.273 Goal=   None    Shift=    0.000
 RMSDP=3.68D-05 MaxDP=3.88D-03 DE=-7.91D-03 OVMax= 7.27D-03

 Cycle   6  Pass 1  IDiag  1:
 RMSU=  2.28D-05    CP:  9.93D-01  7.22D-01  6.15D-01  6.65D-01  6.29D-01
 E= -2029.83738646796     Delta-E=       -0.000465241277 Rises=F Damp=F
 DIIS: error= 1.94D-04 at cycle   6 NSaved=   6.
 NSaved= 6 IEnMin= 6 EnMin= -2029.83738646796     IErMin= 6 ErrMin= 1.94D-04
 ErrMax= 1.94D-04  0.00D+00 EMaxC= 1.00D-01 BMatC= 2.88D-05 BMatP= 6.44D-04
 IDIUse=3 WtCom= 9.98D-01 WtEn= 1.94D-03
 Coeff-Com: -0.574D-03 0.389D-02 0.225D-01 0.587D-01 0.200D+00 0.716D+00
 Coeff-En:   0.000D+00 0.000D+00 0.000D+00 0.000D+00 0.000D+00 0.100D+01
 Coeff:     -0.573D-03 0.389D-02 0.225D-01 0.586D-01 0.199D+00 0.716D+00
 Gap=     0.274 Goal=   None    Shift=    0.000
 RMSDP=1.16D-05 MaxDP=7.90D-04 DE=-4.65D-04 OVMax= 1.10D-03

 Cycle   7  Pass 1  IDiag  1:
 RMSU=  7.49D-06    CP:  9.93D-01  7.23D-01  6.18D-01  6.80D-01  7.17D-01
                    CP:  8.90D-01
 E= -2029.83740786043     Delta-E=       -0.000021392472 Rises=F Damp=F
 DIIS: error= 3.73D-05 at cycle   7 NSaved=   7.
 NSaved= 7 IEnMin= 7 EnMin= -2029.83740786043     IErMin= 7 ErrMin= 3.73D-05
 ErrMax= 3.73D-05  0.00D+00 EMaxC= 1.00D-01 BMatC= 3.99D-06 BMatP= 2.88D-05
 IDIUse=1 WtCom= 1.00D+00 WtEn= 0.00D+00
 Coeff-Com: -0.233D-03-0.367D-02-0.110D-01-0.192D-01 0.297D-01 0.323D+00
 Coeff-Com:  0.681D+00
 Coeff:     -0.233D-03-0.367D-02-0.110D-01-0.192D-01 0.297D-01 0.323D+00
 Coeff:      0.681D+00
 Gap=     0.274 Goal=   None    Shift=    0.000
 RMSDP=3.67D-06 MaxDP=2.00D-04 DE=-2.14D-05 OVMax= 4.25D-04

 Cycle   8  Pass 1  IDiag  1:
 RMSU=  2.32D-06    CP:  9.93D-01  7.23D-01  6.18D-01  6.81D-01  7.35D-01
                    CP:  9.86D-01  8.71D-01
 E= -2029.83741127339     Delta-E=       -0.000003412963 Rises=F Damp=F
 DIIS: error= 1.19D-05 at cycle   8 NSaved=   8.
 NSaved= 8 IEnMin= 8 EnMin= -2029.83741127339     IErMin= 8 ErrMin= 1.19D-05
 ErrMax= 1.19D-05  0.00D+00 EMaxC= 1.00D-01 BMatC= 2.53D-07 BMatP= 3.99D-06
 IDIUse=1 WtCom= 1.00D+00 WtEn= 0.00D+00
 Coeff-Com: -0.465D-04-0.170D-02-0.576D-02-0.119D-01-0.357D-03 0.711D-01
 Coeff-Com:  0.265D+00 0.684D+00
 Coeff:     -0.465D-04-0.170D-02-0.576D-02-0.119D-01-0.357D-03 0.711D-01
 Coeff:      0.265D+00 0.684D+00
 Gap=     0.274 Goal=   None    Shift=    0.000
 RMSDP=1.13D-06 MaxDP=5.56D-05 DE=-3.41D-06 OVMax= 1.08D-04

 Cycle   9  Pass 1  IDiag  1:
 RMSU=  8.68D-07    CP:  9.93D-01  7.23D-01  6.19D-01  6.81D-01  7.41D-01
                    CP:  9.99D-01  9.23D-01  9.85D-01
 E= -2029.83741150583     Delta-E=       -0.000000232442 Rises=F Damp=F
 DIIS: error= 5.67D-06 at cycle   9 NSaved=   9.
 NSaved= 9 IEnMin= 9 EnMin= -2029.83741150583     IErMin= 9 ErrMin= 5.67D-06
 ErrMax= 5.67D-06  0.00D+00 EMaxC= 1.00D-01 BMatC= 3.31D-08 BMatP= 2.53D-07
 IDIUse=1 WtCom= 1.00D+00 WtEn= 0.00D+00
 Coeff-Com:  0.122D-04-0.111D-03-0.519D-03-0.183D-02-0.368D-02-0.262D-01
 Coeff-Com: -0.387D-02 0.244D+00 0.792D+00
 Coeff:      0.122D-04-0.111D-03-0.519D-03-0.183D-02-0.368D-02-0.262D-01
 Coeff:     -0.387D-02 0.244D+00 0.792D+00
 Gap=     0.274 Goal=   None    Shift=    0.000
 RMSDP=5.74D-07 MaxDP=3.53D-05 DE=-2.32D-07 OVMax= 6.78D-05

 Cycle  10  Pass 1  IDiag  1:
 RMSU=  2.91D-07    CP:  9.93D-01  7.23D-01  6.19D-01  6.81D-01  7.44D-01
                    CP:  1.01D+00  9.55D-01  1.10D+00  9.53D-01
 E= -2029.83741154691     Delta-E=       -0.000000041078 Rises=F Damp=F
 DIIS: error= 1.26D-06 at cycle  10 NSaved=  10.
 NSaved=10 IEnMin=10 EnMin= -2029.83741154691     IErMin=10 ErrMin= 1.26D-06
 ErrMax= 1.26D-06  0.00D+00 EMaxC= 1.00D-01 BMatC= 3.13D-09 BMatP= 3.31D-08
 IDIUse=1 WtCom= 1.00D+00 WtEn= 0.00D+00
 Coeff-Com:  0.104D-04 0.169D-03 0.518D-03 0.763D-03-0.620D-03-0.173D-01
 Coeff-Com: -0.311D-01-0.101D-01 0.239D+00 0.819D+00
 Coeff:      0.104D-04 0.169D-03 0.518D-03 0.763D-03-0.620D-03-0.173D-01
 Coeff:     -0.311D-01-0.101D-01 0.239D+00 0.819D+00
 Gap=     0.274 Goal=   None    Shift=    0.000
 RMSDP=2.01D-07 MaxDP=1.80D-05 DE=-4.11D-08 OVMax= 3.09D-05

 Cycle  11  Pass 1  IDiag  1:
 RMSU=  9.69D-08    CP:  9.93D-01  7.23D-01  6.19D-01  6.81D-01  7.46D-01
                    CP:  1.01D+00  9.64D-01  1.14D+00  1.08D+00  1.01D+00
 E= -2029.83741155066     Delta-E=       -0.000000003747 Rises=F Damp=F
 DIIS: error= 1.01D-06 at cycle  11 NSaved=  11.
 NSaved=11 IEnMin=11 EnMin= -2029.83741155066     IErMin=11 ErrMin= 1.01D-06
 ErrMax= 1.01D-06  0.00D+00 EMaxC= 1.00D-01 BMatC= 8.19D-10 BMatP= 3.13D-09
 IDIUse=1 WtCom= 1.00D+00 WtEn= 0.00D+00
 Coeff-Com:  0.446D-05 0.101D-03 0.326D-03 0.569D-03 0.158D-03-0.691D-02
 Coeff-Com: -0.157D-01-0.263D-01 0.617D-01 0.436D+00 0.550D+00
 Coeff:      0.446D-05 0.101D-03 0.326D-03 0.569D-03 0.158D-03-0.691D-02
 Coeff:     -0.157D-01-0.263D-01 0.617D-01 0.436D+00 0.550D+00
 Gap=     0.274 Goal=   None    Shift=    0.000
 RMSDP=5.17D-08 MaxDP=4.89D-06 DE=-3.75D-09 OVMax= 9.95D-06

 Cycle  12  Pass 1  IDiag  1:
 RMSU=  3.90D-08    CP:  9.93D-01  7.23D-01  6.19D-01  6.81D-01  7.46D-01
                    CP:  1.01D+00  9.65D-01  1.14D+00  1.09D+00  1.08D+00
                    CP:  8.07D-01
 E= -2029.83741155127     Delta-E=       -0.000000000611 Rises=F Damp=F
 DIIS: error= 3.26D-07 at cycle  12 NSaved=  12.
 NSaved=12 IEnMin=12 EnMin= -2029.83741155127     IErMin=12 ErrMin= 3.26D-07
 ErrMax= 3.26D-07  0.00D+00 EMaxC= 1.00D-01 BMatC= 8.78D-11 BMatP= 8.19D-10
 IDIUse=1 WtCom= 1.00D+00 WtEn= 0.00D+00
 Coeff-Com: -0.251D-06 0.106D-04 0.392D-04 0.936D-04 0.275D-03 0.495D-03
 Coeff-Com: -0.321D-03-0.935D-02-0.219D-01 0.952D-02 0.235D+00 0.786D+00
 Coeff:     -0.251D-06 0.106D-04 0.392D-04 0.936D-04 0.275D-03 0.495D-03
 Coeff:     -0.321D-03-0.935D-02-0.219D-01 0.952D-02 0.235D+00 0.786D+00
 Gap=     0.274 Goal=   None    Shift=    0.000
 RMSDP=2.45D-08 MaxDP=2.20D-06 DE=-6.11D-10 OVMax= 3.92D-06

 Cycle  13  Pass 1  IDiag  1:
 RMSU=  1.19D-08    CP:  9.93D-01  7.23D-01  6.19D-01  6.81D-01  7.46D-01
                    CP:  1.01D+00  9.66D-01  1.15D+00  1.10D+00  1.12D+00
                    CP:  9.43D-01  9.21D-01
 E= -2029.83741155148     Delta-E=       -0.000000000208 Rises=F Damp=F
 DIIS: error= 1.11D-07 at cycle  13 NSaved=  13.
 NSaved=13 IEnMin=13 EnMin= -2029.83741155148     IErMin=13 ErrMin= 1.11D-07
 ErrMax= 1.11D-07  0.00D+00 EMaxC= 1.00D-01 BMatC= 1.16D-11 BMatP= 8.78D-11
 IDIUse=1 WtCom= 1.00D+00 WtEn= 0.00D+00
 Coeff-Com: -0.555D-06-0.470D-05-0.127D-04-0.122D-04 0.131D-03 0.889D-03
 Coeff-Com:  0.140D-02-0.196D-02-0.168D-01-0.379D-01 0.626D-01 0.380D+00
 Coeff-Com:  0.612D+00
 Coeff:     -0.555D-06-0.470D-05-0.127D-04-0.122D-04 0.131D-03 0.889D-03
 Coeff:      0.140D-02-0.196D-02-0.168D-01-0.379D-01 0.626D-01 0.380D+00
 Coeff:      0.612D+00
 Gap=     0.274 Goal=   None    Shift=    0.000
 RMSDP=7.34D-09 MaxDP=4.51D-07 DE=-2.08D-10 OVMax= 9.56D-07

 Error on total polarization charges =  0.00407
 SCF Done:  E(RCAM-B3LYP) =  -2029.83741155     A.U. after   13 cycles
            NFock= 13  Conv=0.73D-08     -V/T= 2.0077
 KE= 2.014268163865D+03 PE=-1.309246972507D+04 EE= 4.892503962210D+03
 Leave Link  502 at Mon Feb  3 21:50:32 2025, MaxMem=  5368709120 cpu:      1211.6
 (Enter /home/k0335/k033513/app/g09/l601.exe)
 Copying SCF densities to generalized density rwf, IOpCl= 0 IROHF=0.

 **********************************************************************

            Population analysis using the SCF density.

 **********************************************************************

 Alpha  occ. eigenvalues --  -24.84478 -24.83215 -24.82964 -24.82570 -24.82379
 Alpha  occ. eigenvalues --  -24.82314 -24.81718 -24.81692 -24.81157 -24.80995
 Alpha  occ. eigenvalues --  -19.31834 -19.29856 -19.25281 -19.21666 -14.44461
 Alpha  occ. eigenvalues --  -14.39867 -10.52814 -10.49089 -10.49086 -10.47295
 Alpha  occ. eigenvalues --  -10.46797 -10.44253 -10.42694 -10.39348 -10.29561
 Alpha  occ. eigenvalues --  -10.29149 -10.28717 -10.28398 -10.24872 -10.24719
 Alpha  occ. eigenvalues --  -10.24538 -10.24025  -1.40855  -1.38576  -1.38041
 Alpha  occ. eigenvalues --   -1.36842  -1.34713  -1.33548  -1.33025  -1.32108
 Alpha  occ. eigenvalues --   -1.30835  -1.30050  -1.21877  -1.20014  -1.13658
 Alpha  occ. eigenvalues --   -1.12107  -1.01788  -0.99116  -0.97492  -0.90637
 Alpha  occ. eigenvalues --   -0.87976  -0.86705  -0.85317  -0.82690  -0.79830
 Alpha  occ. eigenvalues --   -0.77905  -0.76578  -0.76150  -0.75923  -0.73551
 Alpha  occ. eigenvalues --   -0.72447  -0.70542  -0.70364  -0.69335  -0.68170
 Alpha  occ. eigenvalues --   -0.67962  -0.67231  -0.66502  -0.66280  -0.65432
 Alpha  occ. eigenvalues --   -0.64993  -0.64176  -0.63578  -0.62569  -0.61623
 Alpha  occ. eigenvalues --   -0.61300  -0.58428  -0.57733  -0.56599  -0.56376
 Alpha  occ. eigenvalues --   -0.55895  -0.55589  -0.55155  -0.54908  -0.54500
 Alpha  occ. eigenvalues --   -0.53966  -0.53623  -0.53411  -0.53000  -0.52775
 Alpha  occ. eigenvalues --   -0.52689  -0.52151  -0.51943  -0.51745  -0.51503
 Alpha  occ. eigenvalues --   -0.51127  -0.50871  -0.50729  -0.49933  -0.49436
 Alpha  occ. eigenvalues --   -0.48849  -0.48693  -0.48599  -0.47878  -0.47799
 Alpha  occ. eigenvalues --   -0.46801  -0.46452  -0.46254  -0.45529  -0.44975
 Alpha  occ. eigenvalues --   -0.44707  -0.44260  -0.43696  -0.43354  -0.42543
 Alpha  occ. eigenvalues --   -0.42470  -0.41276  -0.40928  -0.40399  -0.39996
 Alpha  occ. eigenvalues --   -0.38071  -0.37482  -0.37398  -0.34583  -0.32573
 Alpha  occ. eigenvalues --   -0.27447
 Alpha virt. eigenvalues --   -0.00071   0.02369   0.04245   0.07937   0.11326
 Alpha virt. eigenvalues --    0.11556   0.12121   0.13562   0.14292   0.14724
 Alpha virt. eigenvalues --    0.14891   0.15530   0.16856   0.17650   0.18860
 Alpha virt. eigenvalues --    0.19062   0.19657   0.20221   0.20819   0.21321
 Alpha virt. eigenvalues --    0.21608   0.22235   0.22585   0.23136   0.23740
 Alpha virt. eigenvalues --    0.24209   0.24380   0.24887   0.25477   0.25670
 Alpha virt. eigenvalues --    0.25974   0.26301   0.27357   0.27400   0.28132
 Alpha virt. eigenvalues --    0.28735   0.28995   0.29328   0.29467   0.30866
 Alpha virt. eigenvalues --    0.30993   0.31767   0.32063   0.32931   0.33302
 Alpha virt. eigenvalues --    0.34059   0.34575   0.36089   0.36441   0.37272
 Alpha virt. eigenvalues --    0.38519   0.40288   0.41430   0.45094   0.48617
 Alpha virt. eigenvalues --    0.50481   0.51494   0.51706   0.53074   0.53848
 Alpha virt. eigenvalues --    0.55372   0.55553   0.56164   0.57014   0.57669
 Alpha virt. eigenvalues --    0.58461   0.58786   0.59301   0.59887   0.60683
 Alpha virt. eigenvalues --    0.61378   0.62172   0.62618   0.63482   0.64882
 Alpha virt. eigenvalues --    0.65902   0.66231   0.66960   0.67876   0.68057
 Alpha virt. eigenvalues --    0.68759   0.69549   0.70070   0.70917   0.71804
 Alpha virt. eigenvalues --    0.72844   0.73758   0.74436   0.74539   0.74647
 Alpha virt. eigenvalues --    0.75572   0.76254   0.78040   0.78644   0.79630
 Alpha virt. eigenvalues --    0.80594   0.81694   0.82436   0.82565   0.83630
 Alpha virt. eigenvalues --    0.84892   0.87136   0.87589   0.88153   0.88815
 Alpha virt. eigenvalues --    0.89402   0.90085   0.91496   0.91987   0.92455
 Alpha virt. eigenvalues --    0.93334   0.93772   0.94130   0.94833   0.95056
 Alpha virt. eigenvalues --    0.95992   0.96346   0.96508   0.96977   0.97504
 Alpha virt. eigenvalues --    0.97856   0.98596   0.99077   0.99721   1.01694
 Alpha virt. eigenvalues --    1.02019   1.02541   1.02990   1.03754   1.04200
 Alpha virt. eigenvalues --    1.04946   1.05810   1.06298   1.06924   1.07329
 Alpha virt. eigenvalues --    1.08626   1.09323   1.10019   1.11059   1.11676
 Alpha virt. eigenvalues --    1.13045   1.13210   1.14044   1.14300   1.15823
 Alpha virt. eigenvalues --    1.16908   1.17789   1.18782   1.19176   1.20931
 Alpha virt. eigenvalues --    1.22639   1.23162   1.23491   1.23731   1.26690
 Alpha virt. eigenvalues --    1.27081   1.28124   1.28984   1.30220   1.31048
 Alpha virt. eigenvalues --    1.31400   1.32219   1.33976   1.34330   1.35090
 Alpha virt. eigenvalues --    1.35686   1.36213   1.37241   1.37659   1.38402
 Alpha virt. eigenvalues --    1.40065   1.40863   1.41191   1.42693   1.43422
 Alpha virt. eigenvalues --    1.43755   1.44364   1.44916   1.45601   1.46043
 Alpha virt. eigenvalues --    1.46744   1.47476   1.47655   1.48126   1.48784
 Alpha virt. eigenvalues --    1.50069   1.50348   1.51318   1.52310   1.52702
 Alpha virt. eigenvalues --    1.54593   1.55128   1.56106   1.57568   1.58281
 Alpha virt. eigenvalues --    1.58357   1.59961   1.60826   1.61643   1.62126
 Alpha virt. eigenvalues --    1.62814   1.63494   1.64221   1.64818   1.65348
 Alpha virt. eigenvalues --    1.66517   1.67502   1.69155   1.70343   1.70564
 Alpha virt. eigenvalues --    1.72089   1.72346   1.73494   1.74099   1.75415
 Alpha virt. eigenvalues --    1.76335   1.77459   1.78316   1.79087   1.79667
 Alpha virt. eigenvalues --    1.80678   1.81139   1.81677   1.82496   1.82793
 Alpha virt. eigenvalues --    1.83474   1.84880   1.85808   1.86353   1.86772
 Alpha virt. eigenvalues --    1.87532   1.87798   1.88419   1.89053   1.89681
 Alpha virt. eigenvalues --    1.90475   1.90731   1.91359   1.92204   1.92822
 Alpha virt. eigenvalues --    1.93662   1.93877   1.94744   1.94936   1.96473
 Alpha virt. eigenvalues --    1.96886   1.97365   1.97666   1.98178   1.98716
 Alpha virt. eigenvalues --    1.99089   1.99452   2.00257   2.00604   2.01287
 Alpha virt. eigenvalues --    2.02536   2.03463   2.03846   2.04568   2.05652
 Alpha virt. eigenvalues --    2.05982   2.06300   2.06853   2.07263   2.07808
 Alpha virt. eigenvalues --    2.09203   2.09638   2.09888   2.11171   2.11404
 Alpha virt. eigenvalues --    2.11757   2.11928   2.12146   2.12779   2.12896
 Alpha virt. eigenvalues --    2.13706   2.13954   2.15143   2.15616   2.16449
 Alpha virt. eigenvalues --    2.16819   2.17446   2.17876   2.19652   2.19914
 Alpha virt. eigenvalues --    2.20134   2.20447   2.20611   2.20990   2.22198
 Alpha virt. eigenvalues --    2.22931   2.23255   2.23503   2.24500   2.25554
 Alpha virt. eigenvalues --    2.26494   2.27002   2.27806   2.28789   2.29458
 Alpha virt. eigenvalues --    2.29877   2.31753   2.32627   2.33504   2.34489
 Alpha virt. eigenvalues --    2.35108   2.35735   2.36658   2.37883   2.38712
 Alpha virt. eigenvalues --    2.39906   2.40063   2.41161   2.41595   2.41928
 Alpha virt. eigenvalues --    2.42805   2.43064   2.44847   2.45259   2.45741
 Alpha virt. eigenvalues --    2.46290   2.47483   2.48603   2.48649   2.49675
 Alpha virt. eigenvalues --    2.50573   2.51639   2.52485   2.53609   2.54623
 Alpha virt. eigenvalues --    2.56579   2.58722   2.58782   2.59934   2.61072
 Alpha virt. eigenvalues --    2.62288   2.62489   2.64335   2.65638   2.66107
 Alpha virt. eigenvalues --    2.67889   2.68539   2.68889   2.70089   2.70759
 Alpha virt. eigenvalues --    2.70973   2.72810   2.73337   2.73767   2.75689
 Alpha virt. eigenvalues --    2.76252   2.77218   2.78045   2.79606   2.80288
 Alpha virt. eigenvalues --    2.80502   2.82337   2.82666   2.82911   2.83853
 Alpha virt. eigenvalues --    2.84673   2.84964   2.85471   2.86240   2.87034
 Alpha virt. eigenvalues --    2.88698   2.88927   2.91222   2.91544   2.92246
 Alpha virt. eigenvalues --    2.93444   2.94456   2.94695   2.95789   2.96516
 Alpha virt. eigenvalues --    2.96958   2.97190   2.97992   2.99495   2.99711
 Alpha virt. eigenvalues --    3.00537   3.01952   3.02249   3.02683   3.03716
 Alpha virt. eigenvalues --    3.06101   3.10058   3.10571   3.10962   3.11687
 Alpha virt. eigenvalues --    3.12006   3.12471   3.15874   3.17020   3.20407
 Alpha virt. eigenvalues --    3.23923   3.24824   3.25775   3.27649   3.28281
 Alpha virt. eigenvalues --    3.28451   3.31391   3.32063   3.33392   3.34746
 Alpha virt. eigenvalues --    3.36155   3.38147   3.39671   3.42097   3.44274
 Alpha virt. eigenvalues --    3.47516   3.48435   3.51057   3.51607   3.54282
 Alpha virt. eigenvalues --    3.56584   3.57352   3.57715   3.60323   3.61024
 Alpha virt. eigenvalues --    3.61655   3.63710   3.96324   4.11711   4.18064
 Alpha virt. eigenvalues --    4.19402   4.25719   4.29416   4.37269   4.40519
 Alpha virt. eigenvalues --    4.44511   4.46474   4.48116   4.51774   4.56857
 Alpha virt. eigenvalues --    4.58016   4.63119   4.67745   4.74388   4.77886
 Alpha virt. eigenvalues --    4.79823   4.82833   4.85103   4.89195   5.00374
 Alpha virt. eigenvalues --    5.03047   5.25902   5.34456   5.41396   5.66802
 Alpha virt. eigenvalues --    5.76657   6.43388   6.71900   7.06896
          Condensed to atoms (all electrons):
 Mulliken charges:
               1
     1  F   -0.247320
     2  C    0.749139
     3  F   -0.237588
     4  C    0.551103
     5  F   -0.246947
     6  F   -0.256737
     7  C    0.130295
     8  F   -0.266897
     9  C    0.638046
    10  F   -0.267185
    11  C    0.516366
    12  O   -0.471107
    13  O   -0.439277
    14  F   -0.275713
    15  C    0.491064
    16  F   -0.278689
    17  C    0.577478
    18  F   -0.280980
    19  C    0.502081
    20  N   -0.517851
    21  C   -0.044476
    22  C   -0.064357
    23  N   -0.450427
    24  C    0.058929
    25  C   -0.310764
    26  C   -0.320108
    27  C    0.091376
    28  C   -0.321308
    29  C   -0.324916
    30  O   -0.502990
    31  F   -0.267668
    32  O   -0.491424
    33  H    0.359915
    34  H    0.289335
    35  H    0.134175
    36  H    0.118435
    37  H    0.103016
    38  H    0.123853
    39  H    0.102532
    40  H    0.101567
    41  H    0.100066
    42  H    0.101997
    43  H    0.108393
    44  H    0.105977
    45  H    0.106398
    46  H    0.080312
    47  H    0.106445
    48  H    0.108903
    49  H    0.101983
    50  H    0.106788
    51  H    0.113709
    52  H    0.105054
 Sum of Mulliken charges =   0.00000
 Mulliken charges with hydrogens summed into heavy atoms:
               1
     1  F   -0.247320
     2  C    0.749139
     3  F   -0.237588
     4  C    0.551103
     5  F   -0.246947
     6  F   -0.256737
     7  C    0.130295
     8  F   -0.266897
     9  C    0.638046
    10  F   -0.267185
    11  C    0.516366
    12  O   -0.111192
    13  O   -0.439277
    14  F   -0.275713
    15  C    0.491064
    16  F   -0.278689
    17  C    0.577478
    18  F   -0.280980
    19  C    0.502081
    20  N   -0.228515
    21  C    0.208135
    22  C    0.162512
    23  N   -0.450427
    24  C    0.161461
    25  C   -0.007135
    26  C    0.000660
    27  C    0.171688
    28  C   -0.003977
    29  C    0.000636
    30  O   -0.502990
    31  F   -0.267668
    32  O   -0.491424
 Electronic spatial extent (au):  <R**2>=          17108.1902
 Charge=              0.0000 electrons
 Dipole moment (field-independent basis, Debye):
    X=             -2.1044    Y=             -2.3496    Z=              1.3847  Tot=              3.4447
 Quadrupole moment (field-independent basis, Debye-Ang):
   XX=           -153.6792   YY=           -178.9759   ZZ=           -191.9791
   XY=             -9.3576   XZ=              4.2121   YZ=              0.3965
 Traceless Quadrupole moment (field-independent basis, Debye-Ang):
   XX=             21.1989   YY=             -4.0978   ZZ=            -17.1010
   XY=             -9.3576   XZ=              4.2121   YZ=              0.3965
 Octapole moment (field-independent basis, Debye-Ang**2):
  XXX=           -511.5432  YYY=              6.7122  ZZZ=           -128.2804  XYY=           -239.2636
  XXY=            -74.3613  XXZ=            -38.7163  XZZ=           -287.7029  YZZ=              3.9123
  YYZ=            -54.1753  XYZ=             10.2906
 Hexadecapole moment (field-independent basis, Debye-Ang**3):
 XXXX=         -13590.0743 YYYY=          -2150.6132 ZZZZ=          -1699.3386 XXXY=           -250.4162
 XXXZ=           -557.3652 YYYX=            276.5359 YYYZ=            166.5983 ZZZX=           -460.2776
 ZZZY=            170.5295 XXYY=          -2954.6372 XXZZ=          -3210.1437 YYZZ=           -639.1125
 XXYZ=            126.9529 YYXZ=           -171.3358 ZZXY=            102.0347
 N-N= 4.155860187447D+03 E-N=-1.309246971434D+04  KE= 2.014268163865D+03
 No NMR shielding tensors so no spin-rotation constants.
 Leave Link  601 at Mon Feb  3 21:50:32 2025, MaxMem=  5368709120 cpu:         3.8
 (Enter /home/k0335/k033513/app/g09/l9999.exe)
 1\1\GINC-C15U05N1\SP\RCAM-B3LYP\6-31G(d,p)\C16H20F10N2O4\K033513\03-Fe
 b-2025\0\\#p CAM-B3LYP/6-31G(d,p) SCRF=(PCM,Solvent=Generic,Read) NoSy
 mm out=wfn\\Title DIPEDA1_neu\\0,1\F,0,2.737526,-2.573413,2.20288\C,0,
 3.354669,-1.428027,1.852215\F,0,4.345999,-1.216272,2.737237\C,0,3.8305
 6,-1.424675,0.41691\F,0,4.933181,-2.147357,0.174934\F,0,2.847036,-1.95
 8701,-0.361885\C,0,3.949565,0.038794,0.106748\F,0,3.734549,0.256341,-1
 .218171\C,0,5.295811,0.642086,0.465733\F,0,5.527603,0.526753,1.800481\
 C,0,6.421068,0.012748,-0.358784\O,0,7.26812,-0.748461,0.370987\O,0,6.6
 00557,0.125829,-1.561571\F,0,5.247285,1.987604,0.225175\C,0,2.817923,0
 .612548,0.967154\F,0,3.296275,1.674483,1.68506\C,0,1.60214,1.1377,0.17
 7755\F,0,0.743498,1.737353,1.06807\C,0,0.856408,0.024921,-0.570382\N,0
 ,-0.034153,-0.692627,0.213467\C,0,-0.937723,-1.659522,-0.391953\C,0,-2
 .146134,-0.977346,-1.062918\N,0,-2.81573,-0.038071,-0.114423\C,0,-2.73
 6671,1.34734,-0.646546\C,0,-2.6647,2.40827,0.458469\C,0,-3.781573,1.70
 2364,-1.709072\C,0,-4.150133,-0.542531,0.307094\C,0,-4.033527,-1.91857
 3,0.996865\C,0,-4.900066,0.363993,1.2946\O,0,1.058214,-0.246554,-1.751
 5\F,0,2.002095,2.139704,-0.6584\O,0,2.43551,-0.350233,1.97444\H,0,7.94
 0517,-1.067295,-0.26949\H,0,-0.439633,-0.189331,1.000615\H,0,-0.388355
 ,-2.25355,-1.130171\H,0,-1.261193,-2.33054,0.409295\H,0,-2.834222,-1.7
 3607,-1.454534\H,0,-1.784924,-0.456674,-1.959355\H,0,-1.758816,1.45060
 4,-1.137636\H,0,-2.267893,3.344177,0.048091\H,0,-1.987077,2.095046,1.2
 60529\H,0,-3.634365,2.6474,0.897616\H,0,-3.563845,2.687022,-2.138508\H
 ,0,-3.771743,0.978761,-2.530869\H,0,-4.796325,1.741324,-1.304779\H,0,-
 4.787771,-0.667642,-0.578021\H,0,-5.013132,-2.259698,1.352035\H,0,-3.3
 62802,-1.871196,1.862133\H,0,-3.66846,-2.697005,0.321283\H,0,-5.2569,1
 .280502,0.821121\H,0,-4.273013,0.624353,2.154175\H,0,-5.795231,-0.1366
 56,1.682532\\Version=ES64L-G09RevD.01\HF=-2029.8374116\RMSD=7.343e-09\
 Dipole=-0.8279162,-0.9243874,0.5447811\Quadrupole=15.7608263,-3.046637
 ,-12.7141893,-6.957162,3.131563,0.2947959\PG=C01 [X(C16H20F10N2O4)]\\@

 Writing a WFN file to "cytop/DIPEDA1/DIPEDA1_neu.wfn"


 FROM THE ASHES OF OUR DESPAIR GROW THE FLOWERS OF TOMORROW.
 Job cpu time:       0 days  0 hours 20 minutes 49.8 seconds.
 File lengths (MBytes):  RWF=    384 Int=      0 D2E=      0 Chk=     14 Scr=      1
 Normal termination of Gaussian 09 at Mon Feb  3 21:50:33 2025.
