 Entering Gaussian System, Link 0=g09
 Initial command:
 /home/k0335/k033513/app/g09/l1.exe "/home/k0335/k033513/app/g09/scratch/Gau-621083.inp" -scrdir="/home/k0335/k033513/app/g09/scratch/"
 Default is to use a total of  36 processors:
                               36 via shared-memory
                                1 via Linda
 Entering Link 1 = /home/k0335/k033513/app/g09/l1.exe PID=    621084.
  
 Copyright (c) 1988,1990,1992,1993,1995,1998,2003,2009,2013,
            Gaussian, Inc.  All Rights Reserved.
  
 This is part of the Gaussian(R) 09 program.  It is based on
 the Gaussian(R) 03 system (copyright 2003, Gaussian, Inc.),
 the Gaussian(R) 98 system (copyright 1998, Gaussian, Inc.),
 the Gaussian(R) 94 system (copyright 1995, Gaussian, Inc.),
 the Gaussian 92(TM) system (copyright 1992, Gaussian, Inc.),
 the Gaussian 90(TM) system (copyright 1990, Gaussian, Inc.),
 the Gaussian 88(TM) system (copyright 1988, Gaussian, Inc.),
 the Gaussian 86(TM) system (copyright 1986, Carnegie Mellon
 University), and the Gaussian 82(TM) system (copyright 1983,
 Carnegie Mellon University). Gaussian is a federally registered
 trademark of Gaussian, Inc.
  
 This software contains proprietary and confidential information,
 including trade secrets, belonging to Gaussian, Inc.
  
 This software is provided under written license and may be
 used, copied, transmitted, or stored only in accord with that
 written license.
  
 The following legend is applicable only to US Government
 contracts under FAR:
  
                    RESTRICTED RIGHTS LEGEND
  
 Use, reproduction and disclosure by the US Government is
 subject to restrictions as set forth in subparagraphs (a)
 and (c) of the Commercial Computer Software - Restricted
 Rights clause in FAR 52.227-19.
  
 Gaussian, Inc.
 340 Quinnipiac St., Bldg. 40, Wallingford CT 06492
  
  
 ---------------------------------------------------------------
 Warning -- This program may not be used in any manner that
 competes with the business of Gaussian, Inc. or will provide
 assistance to any competitor of Gaussian, Inc.  The licensee
 of this program is prohibited from giving any competitor of
 Gaussian, Inc. access to this program.  By using this program,
 the user acknowledges that Gaussian, Inc. is engaged in the
 business of creating and licensing software in the field of
 computational chemistry and represents and warrants to the
 licensee that it is not a competitor of Gaussian, Inc. and that
 it will not use this program in any manner prohibited above.
 ---------------------------------------------------------------
  

 Cite this work as:
 Gaussian 09, Revision D.01,
 M. J. Frisch, G. W. Trucks, H. B. Schlegel, G. E. Scuseria, 
 M. A. Robb, J. R. Cheeseman, G. Scalmani, V. Barone, B. Mennucci, 
 G. A. Petersson, H. Nakatsuji, M. Caricato, X. Li, H. P. Hratchian, 
 A. F. Izmaylov, J. Bloino, G. Zheng, J. L. Sonnenberg, M. Hada, 
 M. Ehara, K. Toyota, R. Fukuda, J. Hasegawa, M. Ishida, T. Nakajima, 
 Y. Honda, O. Kitao, H. Nakai, T. Vreven, J. A. Montgomery, Jr., 
 J. E. Peralta, F. Ogliaro, M. Bearpark, J. J. Heyd, E. Brothers, 
 K. N. Kudin, V. N. Staroverov, T. Keith, R. Kobayashi, J. Normand, 
 K. Raghavachari, A. Rendell, J. C. Burant, S. S. Iyengar, J. Tomasi, 
 M. Cossi, N. Rega, J. M. Millam, M. Klene, J. E. Knox, J. B. Cross, 
 V. Bakken, C. Adamo, J. Jaramillo, R. Gomperts, R. E. Stratmann, 
 O. Yazyev, A. J. Austin, R. Cammi, C. Pomelli, J. W. Ochterski, 
 R. L. Martin, K. Morokuma, V. G. Zakrzewski, G. A. Voth, 
 P. Salvador, J. J. Dannenberg, S. Dapprich, A. D. Daniels, 
 O. Farkas, J. B. Foresman, J. V. Ortiz, J. Cioslowski, 
 and D. J. Fox, Gaussian, Inc., Wallingford CT, 2013.
 
 ******************************************
 Gaussian 09:  ES64L-G09RevD.01 24-Apr-2013
                 3-Mar-2024 
 ******************************************
 %nprocshared=24
 Will use up to   24 processors via shared memory.
 %mem=40GB
 %rwf=A1528681612/A1528681612_p1.rwf
 %nosave
 %chk=A1528681612/A1528681612_p1.chk
 ----------------------------------------------------------------------
 #p CAM-B3LYP/6-31G(d,p) SCRF=(PCM,Solvent=Generic,Read) NoSymm out=wfn
 ----------------------------------------------------------------------
 1/38=1,40=2/1;
 2/12=2,15=1,17=6,18=5,40=1/2;
 3/5=1,6=6,7=101,11=2,16=1,25=1,30=1,70=2203,72=-2,74=-40/1,2,3;
 4//1;
 5/5=2,38=5/2;
 6/7=2,8=2,9=2,10=2,28=1/1;
 99/5=1,6=100,9=1/99;
 Leave Link    1 at Sun Mar  3 17:36:10 2024, MaxMem=  5368709120 cpu:         1.4
 (Enter /home/k0335/k033513/app/g09/l101.exe)
 --------------------
 Title A1528681612_p1
 --------------------
 Symbolic Z-matrix:
 Charge =  1 Multiplicity = 2
 C                     0.82455  -3.6552   -2.13826 
 C                    -0.0086   -3.47023  -1.29301 
 C                    -1.02708  -3.23718  -0.25438 
 N                    -1.20976  -1.81049  -0.02777 
 C                    -2.12528  -1.14325  -0.81204 
 O                    -2.84983  -1.72815  -1.61824 
 N                    -2.1622    0.22776  -0.65689 
 C                    -3.01796   1.00019  -1.55653 
 C                    -2.31984   1.3168   -2.8723 
 C                    -1.31515   0.91257   0.18978 
 O                    -1.18542   2.13376   0.1183 
 N                    -0.61263   0.15446   1.09058 
 C                     0.2757    0.85789   2.00414 
 F                    -0.39225   1.93246   2.51644 
 F                     0.48766   0.07503   3.10276 
 C                     1.63467   1.30433   1.4025 
 F                     1.41395   2.24016   0.43315 
 O                     2.24988   0.20226   0.72587 
 C                     3.58178   0.44624   0.36133 
 F                     4.36908   0.32487   1.44189 
 F                     3.72069   1.66652  -0.17909 
 F                     3.95117  -0.47398  -0.54888 
 C                     2.40637   1.9363    2.56954 
 F                     2.74839   1.02145   3.50441 
 F                     3.56127   2.50818   2.14879 
 F                     1.71231   2.91215   3.19457 
 C                    -0.39329  -1.18568   0.89004 
 O                     0.49629  -1.7992    1.4797 
 H                     1.56521  -3.82064  -2.88692 
 H                    -1.97666  -3.69343  -0.55583 
 H                    -0.72456  -3.72512   0.67923 
 H                    -3.93744   0.43862  -1.75725 
 H                    -3.31363   1.93456  -1.06569 
 H                    -1.40796   1.8994   -2.70619 
 H                    -2.98188   1.8962   -3.52306 
 H                    -2.03759   0.40041  -3.40069 
 
 NAtoms=     36 NQM=       36 NQMF=       0 NMMI=      0 NMMIF=      0
                NMic=       0 NMicF=      0.
                    Isotopes and Nuclear Properties:
 (Nuclear quadrupole moments (NQMom) in fm**2, nuclear magnetic moments (NMagM)
  in nuclear magnetons)

  Atom         1           2           3           4           5           6           7           8           9          10
 IAtWgt=          12          12          12          14          12          16          14          12          12          12
 AtmWgt=  12.0000000  12.0000000  12.0000000  14.0030740  12.0000000  15.9949146  14.0030740  12.0000000  12.0000000  12.0000000
 NucSpn=           0           0           0           2           0           0           2           0           0           0
 AtZEff=   0.0000000   0.0000000   0.0000000   0.0000000   0.0000000   0.0000000   0.0000000   0.0000000   0.0000000   0.0000000
 NQMom=    0.0000000   0.0000000   0.0000000   2.0440000   0.0000000   0.0000000   2.0440000   0.0000000   0.0000000   0.0000000
 NMagM=    0.0000000   0.0000000   0.0000000   0.4037610   0.0000000   0.0000000   0.4037610   0.0000000   0.0000000   0.0000000
 AtZNuc=   6.0000000   6.0000000   6.0000000   7.0000000   6.0000000   8.0000000   7.0000000   6.0000000   6.0000000   6.0000000

  Atom        11          12          13          14          15          16          17          18          19          20
 IAtWgt=          16          14          12          19          19          12          19          16          12          19
 AtmWgt=  15.9949146  14.0030740  12.0000000  18.9984033  18.9984033  12.0000000  18.9984033  15.9949146  12.0000000  18.9984033
 NucSpn=           0           2           0           1           1           0           1           0           0           1
 AtZEff=   0.0000000   0.0000000   0.0000000   0.0000000   0.0000000   0.0000000   0.0000000   0.0000000   0.0000000   0.0000000
 NQMom=    0.0000000   2.0440000   0.0000000   0.0000000   0.0000000   0.0000000   0.0000000   0.0000000   0.0000000   0.0000000
 NMagM=    0.0000000   0.4037610   0.0000000   2.6288670   2.6288670   0.0000000   2.6288670   0.0000000   0.0000000   2.6288670
 AtZNuc=   8.0000000   7.0000000   6.0000000   9.0000000   9.0000000   6.0000000   9.0000000   8.0000000   6.0000000   9.0000000

  Atom        21          22          23          24          25          26          27          28          29          30
 IAtWgt=          19          19          12          19          19          19          12          16           1           1
 AtmWgt=  18.9984033  18.9984033  12.0000000  18.9984033  18.9984033  18.9984033  12.0000000  15.9949146   1.0078250   1.0078250
 NucSpn=           1           1           0           1           1           1           0           0           1           1
 AtZEff=   0.0000000   0.0000000   0.0000000   0.0000000   0.0000000   0.0000000   0.0000000   0.0000000   0.0000000   0.0000000
 NQMom=    0.0000000   0.0000000   0.0000000   0.0000000   0.0000000   0.0000000   0.0000000   0.0000000   0.0000000   0.0000000
 NMagM=    2.6288670   2.6288670   0.0000000   2.6288670   2.6288670   2.6288670   0.0000000   0.0000000   2.7928460   2.7928460
 AtZNuc=   9.0000000   9.0000000   6.0000000   9.0000000   9.0000000   9.0000000   6.0000000   8.0000000   1.0000000   1.0000000

  Atom        31          32          33          34          35          36
 IAtWgt=           1           1           1           1           1           1
 AtmWgt=   1.0078250   1.0078250   1.0078250   1.0078250   1.0078250   1.0078250
 NucSpn=           1           1           1           1           1           1
 AtZEff=   0.0000000   0.0000000   0.0000000   0.0000000   0.0000000   0.0000000
 NQMom=    0.0000000   0.0000000   0.0000000   0.0000000   0.0000000   0.0000000
 NMagM=    2.7928460   2.7928460   2.7928460   2.7928460   2.7928460   2.7928460
 AtZNuc=   1.0000000   1.0000000   1.0000000   1.0000000   1.0000000   1.0000000
 Leave Link  101 at Sun Mar  3 17:36:10 2024, MaxMem=  5368709120 cpu:         0.8
 (Enter /home/k0335/k033513/app/g09/l202.exe)
                          Input orientation:                          
 ---------------------------------------------------------------------
 Center     Atomic      Atomic             Coordinates (Angstroms)
 Number     Number       Type             X           Y           Z
 ---------------------------------------------------------------------
      1          6           0        0.824553   -3.655200   -2.138256
      2          6           0       -0.008598   -3.470234   -1.293009
      3          6           0       -1.027080   -3.237176   -0.254380
      4          7           0       -1.209760   -1.810492   -0.027771
      5          6           0       -2.125276   -1.143248   -0.812039
      6          8           0       -2.849825   -1.728154   -1.618239
      7          7           0       -2.162201    0.227761   -0.656891
      8          6           0       -3.017955    1.000191   -1.556532
      9          6           0       -2.319843    1.316801   -2.872298
     10          6           0       -1.315153    0.912566    0.189780
     11          8           0       -1.185417    2.133765    0.118295
     12          7           0       -0.612625    0.154463    1.090575
     13          6           0        0.275697    0.857892    2.004143
     14          9           0       -0.392248    1.932455    2.516438
     15          9           0        0.487663    0.075033    3.102764
     16          6           0        1.634670    1.304326    1.402501
     17          9           0        1.413948    2.240160    0.433145
     18          8           0        2.249882    0.202260    0.725874
     19          6           0        3.581777    0.446235    0.361334
     20          9           0        4.369084    0.324865    1.441892
     21          9           0        3.720691    1.666522   -0.179087
     22          9           0        3.951169   -0.473976   -0.548881
     23          6           0        2.406374    1.936302    2.569537
     24          9           0        2.748389    1.021447    3.504409
     25          9           0        3.561274    2.508181    2.148785
     26          9           0        1.712306    2.912150    3.194572
     27          6           0       -0.393289   -1.185676    0.890038
     28          8           0        0.496291   -1.799200    1.479700
     29          1           0        1.565213   -3.820641   -2.886921
     30          1           0       -1.976659   -3.693433   -0.555828
     31          1           0       -0.724556   -3.725123    0.679226
     32          1           0       -3.937438    0.438618   -1.757248
     33          1           0       -3.313627    1.934556   -1.065687
     34          1           0       -1.407957    1.899399   -2.706190
     35          1           0       -2.981881    1.896198   -3.523061
     36          1           0       -2.037593    0.400409   -3.400689
 ---------------------------------------------------------------------
                    Distance matrix (angstroms):
                    1          2          3          4          5
     1  C    0.000000
     2  C    1.201164   0.000000
     3  C    2.674374   1.473218   0.000000
     4  N    3.463455   2.407979   1.456074   0.000000
     5  C    4.095149   3.182220   2.429311   1.377846   0.000000
     6  O    4.181504   3.348610   2.731237   2.286084   1.231684
     7  N    5.117864   4.326409   3.668283   2.336110   1.380254
     8  C    6.064317   5.395403   4.859471   3.675135   2.438335
     9  C    5.928477   5.545423   5.409569   4.370764   3.214711
    10  C    5.555410   4.807773   4.183375   2.733767   2.426172
    11  O    6.530246   5.897583   5.386183   3.947036   3.533790
    12  N    5.196572   4.380040   3.672042   2.338443   2.755378
    13  C    6.150505   5.448368   4.854661   3.668178   4.207150
    14  F    7.373511   6.621791   5.899621   4.599019   4.852020
    15  F    6.441772   5.669040   4.953341   4.029479   4.861825
    16  C    6.147369   5.723856   5.518642   4.454049   5.003199
    17  F    6.458696   6.132850   6.035936   4.848100   5.052132
    18  O    5.011467   4.760655   4.850680   4.072871   4.828828
    19  C    5.538231   5.564744   5.931963   5.310654   6.039347
    20  F    6.420442   6.406759   6.684614   6.151679   7.029386
    21  F    6.367628   6.444741   6.825925   6.035053   6.516960
    22  F    4.735190   5.021060   5.701313   5.356586   6.118853
    23  C    7.478661   7.069794   6.821143   5.819012   6.438520
    24  F    7.577060   7.126808   6.820449   6.013578   6.860775
    25  F    7.990972   7.767328   7.735459   6.793460   7.378093
    26  F    8.506306   7.989663   7.563975   6.420694   6.872134
    27  C    4.092952   3.183220   2.433112   1.378185   2.428713
    28  O    4.079473   3.276459   2.719461   2.276666   3.543297
    29  H    1.066043   2.267206   3.740413   4.462725   5.009319
    30  H    3.217504   2.113414   1.095784   2.100582   2.567328
    31  H    3.216027   2.113593   1.096008   2.097875   3.294232
    32  H    6.291349   5.561513   4.923440   3.935710   2.584502
    33  H    7.037067   6.339294   5.712559   4.419153   3.308987
    34  H    6.013337   5.726102   5.704458   4.580011   3.655141
    35  H    6.872019   6.527797   6.391952   5.394165   4.161928
    36  H    5.121873   4.851908   4.914511   4.117034   3.015240
                    6          7          8          9         10
     6  O    0.000000
     7  N    2.285305   0.000000
     8  C    2.734217   1.462299   0.000000
     9  C    3.335460   2.473638   1.522775   0.000000
    10  C    3.549303   1.379601   2.440659   3.247942   0.000000
    11  O    4.549750   2.277690   2.729145   3.301212   1.230150
    12  N    3.985848   2.336706   3.675329   4.468779   1.371021
    13  C    5.438582   3.663538   4.852504   5.543203   2.413650
    14  F    6.044443   4.013569   4.934829   5.756138   2.702825
    15  F    6.056251   4.602185   5.903754   6.717547   3.526625
    16  C    6.199315   4.451552   5.522254   5.823421   3.213351
    17  F    6.175391   4.245794   5.013791   5.071463   3.044622
    18  O    5.935350   4.623761   5.796221   5.922114   3.674426
    19  C    7.071929   5.837619   6.895037   6.785527   4.922075
    20  F    8.105056   6.860904   8.000935   8.021092   5.850105
    21  F    7.534366   6.075092   6.910188   6.622971   5.105315
    22  F    6.997857   6.154461   7.194249   6.923203   5.495659
    23  C    7.654628   5.848147   6.879251   7.234257   4.534429
    24  F    8.071049   6.485387   7.672307   8.150865   5.245092
    25  F    8.557990   6.769808   7.699978   7.824206   5.492106
    26  F    8.093739   6.086996   6.971653   7.457230   4.710904
    27  C    3.552507   2.742233   4.201499   4.912146   2.396417
    28  O    4.560566   3.967515   5.422658   6.048137   3.506978
    29  H    5.047833   5.937694   6.783494   6.441055   6.337653
    30  H    2.398637   3.926882   4.910785   5.530484   4.712616
    31  H    3.712546   4.413312   5.708492   6.370185   4.700694
    32  H    2.428400   2.099217   1.095947   2.152012   3.300291
    33  H    3.733078   2.099058   1.096079   2.152457   2.571879
    34  H    4.052377   2.750070   2.173104   1.094782   3.060898
    35  H    4.096549   3.416210   2.161334   1.094298   4.186968
    36  H    2.892685   2.752047   2.172962   1.094823   3.698066
                   11         12         13         14         15
    11  O    0.000000
    12  N    2.278389   0.000000
    13  C    2.705389   1.455519   0.000000
    14  F    2.533916   2.289739   1.365021   0.000000
    15  F    3.993073   2.294743   1.365564   2.137297   0.000000
    16  C    3.207810   2.543584   1.551800   2.396622   2.391167
    17  F    2.620525   2.981500   2.382082   2.774371   3.559866
    18  O    3.987624   2.886042   2.441563   3.630502   2.961623
    19  C    5.062901   4.267310   3.714626   4.758802   4.150515
    20  F    5.989700   4.996988   4.166061   5.138996   4.229225
    21  F    4.937271   4.761931   4.157927   4.924718   4.873998
    22  F    5.799134   4.889884   4.669143   5.835440   5.062785
    23  C    4.352992   3.804817   2.454063   2.799128   2.725822
    24  F    5.308281   4.227845   2.896852   3.416083   2.483526
    25  F    5.176307   4.907263   3.679591   4.012102   4.034522
    26  F    4.297227   4.175757   2.775057   2.418432   3.091506
    27  C    3.498820   1.372697   2.421764   3.516805   2.694739
    28  O    4.488851   2.279893   2.717322   3.973610   2.479347
    29  H    7.214724   6.030332   6.890140   8.131793   7.225906
    30  H    5.919184   4.401992   5.686925   6.603014   5.801682
    31  H    5.903694   3.902938   4.874417   5.957681   4.667354
    32  H    3.736951   4.386938   5.663423   5.750158   6.582813
    33  H    2.443517   3.887623   4.844204   4.622346   5.940001
    34  H    2.842915   4.253561   5.109468   5.320583   6.376961
    35  H    4.067333   5.471074   6.499221   6.571382   7.697788
    36  H    4.014222   4.718313   5.896847   6.329828   6.984103
                   16         17         18         19         20
    16  C    0.000000
    17  F    1.365340   0.000000
    18  O    1.432082   2.222051   0.000000
    19  C    2.368876   2.814748   1.402269   0.000000
    20  F    2.904809   3.663162   2.240252   1.342456   0.000000
    21  F    2.642743   2.454578   2.264133   1.341809   2.201824
    22  F    3.512324   3.842968   2.230846   1.346005   2.185401
    23  C    1.535218   2.375165   2.535840   2.911706   2.778587
    24  F    2.395497   3.563517   2.939359   3.302170   2.714011
    25  F    2.391236   2.761569   3.010265   2.728923   2.432925
    26  F    2.408868   2.857633   3.704991   4.195581   4.101756
    27  C    3.251976   3.900155   2.989928   4.329412   5.026577
    28  O    3.306621   4.272447   2.765715   3.976549   4.417194
    29  H    6.683506   6.912238   5.450210   5.729217   6.617064
    30  H    6.469493   6.905202   5.889213   6.991012   7.772133
    31  H    5.602181   6.341794   4.926844   6.003814   6.552040
    32  H    6.463888   6.056460   6.671183   7.811981   8.902008
    33  H    5.565500   4.968889   6.096160   7.197089   8.240334
    34  H    5.147138   4.234937   5.295199   6.034802   7.284226
    35  H    6.776726   5.923950   6.949404   7.763538   9.008692
    36  H    6.113364   5.476870   5.954009   6.762561   8.031302
                   21         22         23         24         25
    21  F    0.000000
    22  F    2.184399   0.000000
    23  C    3.058618   4.233245   0.000000
    24  F    3.863889   4.484655   1.352006   0.000000
    25  F    2.480482   4.040134   1.355681   2.169995   0.000000
    26  F    4.119074   5.521938   1.350807   2.178124   2.162301
    27  C    5.118876   4.631557   4.517253   4.645048   5.555861
    28  O    5.015930   4.219898   4.334759   4.138531   5.328727
    29  H    6.487481   4.728571   7.976395   8.105234   8.330461
    30  H    7.831401   6.745672   7.789275   7.812919   8.743206
    31  H    7.040366   5.825857   6.740010   6.524794   7.705973
    32  H    7.914877   8.032627   7.823559   8.527896   8.704646
    33  H    7.095036   7.671074   6.777409   7.646410   7.610922
    34  H    5.722195   6.245568   6.510282   7.524464   6.973855
    35  H    7.493957   7.907633   8.133551   9.109694   8.680855
    36  H    6.718601   6.690488   7.599435   8.424470   8.160066
                   26         27         28         29         30
    26  F    0.000000
    27  C    5.151367   0.000000
    28  O    5.159098   1.231042   0.000000
    29  H    9.073955   5.004417   4.929117   0.000000
    30  H    8.444388   3.299460   3.721152   4.242055   0.000000
    31  H    7.504576   2.569625   2.416693   4.239053   1.759012
    32  H    7.909392   4.712478   5.928205   7.049583   4.728838
    33  H    6.660743   4.699902   5.910618   7.761589   5.807039
    34  H    6.751348   4.845626   5.901480   6.449129   6.018908
    35  H    8.257975   5.972788   7.126097   7.332325   6.407723
    36  H    7.991749   4.861043   5.922588   5.573278   4.985628
                   31         32         33         34         35
    31  H    0.000000
    32  H    5.796185   0.000000
    33  H    6.463743   1.762166   0.000000
    34  H    6.600252   3.071261   2.514769   0.000000
    35  H    7.372515   2.481073   2.479962   1.773281   0.000000
    36  H    5.948932   2.512323   3.071499   1.767977   1.773144
                   36
    36  H    0.000000
 Symmetry turned off by external request.
 Stoichiometry    C12H8F9N3O4(1+,2)
 Framework group  C1[X(C12H8F9N3O4)]
 Deg. of freedom   102
 Full point group                 C1      NOp   1
 Rotational constants (GHZ):      0.2793913      0.1452591      0.1254814
 Leave Link  202 at Sun Mar  3 17:36:10 2024, MaxMem=  5368709120 cpu:         0.1
 (Enter /home/k0335/k033513/app/g09/l301.exe)
 Standard basis: 6-31G(d,p) (6D, 7F)
 Ernie: Thresh=  0.10000D-02 Tol=  0.10000D-05 Strict=F.
   460 basis functions,   840 primitive gaussians,   460 cartesian basis functions
   107 alpha electrons      106 beta electrons
       nuclear repulsion energy      3272.0192925830 Hartrees.
 IExCor=20419 DFT=T Ex+Corr=CAM-B3LYP ExCW=0 ScaHFX=  1.000000
 ScaDFX=  1.000000  1.000000  1.000000  0.810000 ScalE2=  1.000000  1.000000
 IRadAn=      0 IRanWt=     -1 IRanGd=            0 ICorTp=0 IEmpDi=  4
  HFx wShort=  0.000000 wLong=  0.330000 cFull=  0.190000 cShort=  0.000000 cLong=  0.460000
  DFx wShort=  0.000000 wLong=  0.330000 cFull=  0.190000 cShort=  0.000000 cLong=  0.460000
 NAtoms=   36 NActive=   36 NUniq=   36 SFac= 1.00D+00 NAtFMM=   60 NAOKFM=F Big=F
 Integral buffers will be    131072 words long.
 Raffenetti 2 integral format.
 Two-electron integral symmetry is turned off.
 Using the following non-standard input for PCM:
 eps=4.9
 --- end of non-standard input.
 ------------------------------------------------------------------------------
 Polarizable Continuum Model (PCM)
 =================================
 Model                : PCM (using non-symmetric T matrix).
 Atomic radii         : UFF (Universal Force Field).
 Polarization charges : Total charges.
 Charge compensation  : None.
 Solution method      : On-the-fly selection.
 Cavity type          : Scaled VdW (van der Waals Surface) (Alpha=1.100).
 Cavity algorithm     : GePol (No added spheres)
                        Default sphere list used, NSphG=   36.
                        Lebedev-Laikov grids with approx.  5.0 points / Ang**2.
                        Smoothing algorithm: Karplus/York (Gamma=1.0000).
                        Polarization charges: spherical gaussians, with
                                              point-specific exponents (IZeta= 3).
                        Self-potential: point-specific (ISelfS= 7).
                        Self-field    : sphere-specific E.n sum rule (ISelfD= 2).
 Solvent              : Generic,
                        Eps                           =   4.900000
                        Eps(infinity)                 =   0.000000
                        RSolv                         =   0.000000 Ang.
                        Molar volume                  =   0.000000 cm**3/mol
                        Thermal expansion coefficient =   0.000000 K**-1
                        Absolute temperature          = 298.150000 K
                        Numeral density               =   0.000000 Ang**-3
                        Hydrogen bond acidity         =   0.000000
                        Hydrogen bond basicity        =   0.000000
                        Surface tension at interface  =   0.000000 (cal/mol)*Ang**-2
                        Carbon aromaticity            =   0.000000
                        Electronegative halogenicity  =   0.000000
 ------------------------------------------------------------------------------
 GePol: Number of generator spheres                  =      36
 GePol: Total number of spheres                      =      36
 GePol: Number of exposed spheres                    =      36 (100.00%)
 GePol: Number of points                             =    2930
 GePol: Average weight of points                     =       0.13
 GePol: Minimum weight of points                     =   0.18D-08
 GePol: Maximum weight of points                     =    0.20577
 GePol: Number of points with low weight             =     152
 GePol: Fraction of low-weight points (<1% of avg)   =       5.19%
 GePol: Cavity surface area                          =    377.042 Ang**2
 GePol: Cavity volume                                =    421.651 Ang**3
 Leave Link  301 at Sun Mar  3 17:36:10 2024, MaxMem=  5368709120 cpu:         0.8
 (Enter /home/k0335/k033513/app/g09/l302.exe)
 NPDir=0 NMtPBC=     1 NCelOv=     1 NCel=       1 NClECP=     1 NCelD=      1
         NCelK=      1 NCelE2=     1 NClLst=     1 CellRange=     0.0.
 One-electron integrals computed using PRISM.
 NBasis=   460 RedAO= T EigKep=  4.59D-04  NBF=   460
 NBsUse=   460 1.00D-06 EigRej= -1.00D+00 NBFU=   460
 Precomputing XC quadrature grid using
 IXCGrd= 4 IRadAn=           0 IRanWt=          -1 IRanGd=           0 AccXCQ= 0.00D+00.
 Generated NRdTot=       0 NPtTot=           0 NUsed=           0 NTot=          32
 NSgBfM=   452   452   452   452   452 MxSgAt=    36 MxSgA2=    36.
 Leave Link  302 at Sun Mar  3 17:36:10 2024, MaxMem=  5368709120 cpu:         7.2
 (Enter /home/k0335/k033513/app/g09/l303.exe)
 DipDrv:  MaxL=1.
 Leave Link  303 at Sun Mar  3 17:36:10 2024, MaxMem=  5368709120 cpu:         0.7
 (Enter /home/k0335/k033513/app/g09/l401.exe)
 ExpMin= 1.61D-01 ExpMax= 7.00D+03 ExpMxC= 1.05D+03 IAcc=1 IRadAn=         1 AccDes= 0.00D+00
 Harris functional with IExCor=20419 and IRadAn=       1 diagonalized for initial guess.
 HarFok:  IExCor=20419 AccDes= 0.00D+00 IRadAn=         1 IDoV= 1 UseB2=F ITyADJ=14
 ICtDFT=  3500011 ScaDFX=  1.000000  1.000000  1.000000  1.000000
 FoFCou: FMM=F IPFlag=           0 FMFlag=      100000 FMFlg1=           0
         NFxFlg=           0 DoJE=T BraDBF=F KetDBF=T FulRan=T
         wScrn=  0.000000 ICntrl=     500 IOpCl=  0 I1Cent=   200000004 NGrid=           0
         NMat0=    1 NMatS0=      1 NMatT0=    0 NMatD0=    1 NMtDS0=    0 NMtDT0=    0
 Symmetry not used in FoFCou.
 Harris En= -1767.65062873200    
 JPrj=0 DoOrth=F DoCkMO=F.
 Initial guess <Sx>= 0.0000 <Sy>= 0.0000 <Sz>= 0.5000 <S**2>= 0.7500 S= 0.5000
 Leave Link  401 at Sun Mar  3 17:36:11 2024, MaxMem=  5368709120 cpu:         9.4
 (Enter /home/k0335/k033513/app/g09/l502.exe)
 UHF open shell SCF:
 Using DIIS extrapolation, IDIIS=  1040.
 Two-electron integral symmetry not used.
 IVT=      667222 IEndB=      667222 NGot=  5368709120 MDV=  5368270599
 LenX=  5368270599 LenY=  5368058539
 Requested convergence on RMS density matrix=1.00D-08 within 128 cycles.
 Requested convergence on MAX density matrix=1.00D-06.
 Requested convergence on             energy=1.00D-06.
 No special actions if energy rises.
 Fock matrices will be formed incrementally for  20 cycles.

 Cycle   1  Pass 1  IDiag  1:
 FoFJK:  IHMeth= 1 ICntrl=       0 DoSepK=T KAlg= 0 I1Cent=   0 FoldK=F
 IRaf=         1 NMat=   1 IRICut=       1 DoRegI=T DoRafI=F ISym2E= 0.
 FoFCou: FMM=F IPFlag=           0 FMFlag=      100000 FMFlg1=           0
         NFxFlg=           0 DoJE=T BraDBF=F KetDBF=F FulRan=T
         wScrn=  0.000000 ICntrl=     500 IOpCl=  0 I1Cent=           0 NGrid=           0
         NMat0=    1 NMatS0=      1 NMatT0=    0 NMatD0=    1 NMtDS0=    0 NMtDT0=    0
 Symmetry not used in FoFCou.
 Inv3:  Mode=1 IEnd=    25754700.
 Iteration    1 A*A^-1 deviation from unit magnitude is 8.66D-15 for    737.
 Iteration    1 A*A^-1 deviation from orthogonality  is 3.33D-15 for   2930    517.
 Iteration    1 A^-1*A deviation from unit magnitude is 8.44D-15 for   2917.
 Iteration    1 A^-1*A deviation from orthogonality  is 6.04D-13 for   2579   2558.
 E= -1824.06865626292    
 DIIS: error= 5.14D-02 at cycle   1 NSaved=   1.
 NSaved= 1 IEnMin= 1 EnMin= -1824.06865626292     IErMin= 1 ErrMin= 5.14D-02
 ErrMax= 5.14D-02  0.00D+00 EMaxC= 1.00D-01 BMatC= 6.75D+00 BMatP= 6.75D+00
 IDIUse=3 WtCom= 4.86D-01 WtEn= 5.14D-01
 Coeff-Com:  0.100D+01
 Coeff-En:   0.100D+01
 Coeff:      0.100D+01
 Gap=     0.748 Goal=   None    Shift=    0.000
 Gap=    -0.022 Goal=   None    Shift=    0.000
 GapD=   -0.022 DampG=0.250 DampE=0.500 DampFc=0.2500 IDamp=-1.
 Damping current iteration by 2.50D-01
 RMSDP=4.02D-03 MaxDP=1.78D-01              OVMax= 6.05D-01

 Cycle   2  Pass 1  IDiag  1:
 RMSU=  1.01D-03    CP:  1.00D+00
 E= -1824.34395541464     Delta-E=       -0.275299151719 Rises=F Damp=T
 DIIS: error= 4.03D-02 at cycle   2 NSaved=   2.
 NSaved= 2 IEnMin= 2 EnMin= -1824.34395541464     IErMin= 2 ErrMin= 4.03D-02
 ErrMax= 4.03D-02  0.00D+00 EMaxC= 1.00D-01 BMatC= 2.76D+00 BMatP= 6.75D+00
 IDIUse=3 WtCom= 5.97D-01 WtEn= 4.03D-01
 Coeff-Com: -0.137D+01 0.237D+01
 Coeff-En:   0.000D+00 0.100D+01
 Coeff:     -0.819D+00 0.182D+01
 Gap=     0.441 Goal=   None    Shift=    0.000
 Gap=     0.102 Goal=   None    Shift=    0.000
 RMSDP=2.11D-03 MaxDP=7.64D-02 DE=-2.75D-01 OVMax= 1.54D-01

 Cycle   3  Pass 1  IDiag  1:
 RMSU=  1.23D-03    CP:  1.00D+00  2.70D+00
 E= -1824.82743095796     Delta-E=       -0.483475543327 Rises=F Damp=F
 DIIS: error= 7.78D-03 at cycle   3 NSaved=   3.
 NSaved= 3 IEnMin= 3 EnMin= -1824.82743095796     IErMin= 3 ErrMin= 7.78D-03
 ErrMax= 7.78D-03  0.00D+00 EMaxC= 1.00D-01 BMatC= 2.92D-01 BMatP= 2.76D+00
 IDIUse=3 WtCom= 9.22D-01 WtEn= 7.78D-02
 Coeff-Com: -0.340D+00 0.658D+00 0.683D+00
 Coeff-En:   0.000D+00 0.000D+00 0.100D+01
 Coeff:     -0.314D+00 0.607D+00 0.707D+00
 Gap=     0.371 Goal=   None    Shift=    0.000
 Gap=     0.053 Goal=   None    Shift=    0.000
 RMSDP=7.92D-04 MaxDP=4.48D-02 DE=-4.83D-01 OVMax= 1.12D-01

 Cycle   4  Pass 1  IDiag  1:
 RMSU=  7.47D-04    CP:  1.00D+00  2.67D+00  7.87D-01
 E= -1824.86370565157     Delta-E=       -0.036274693603 Rises=F Damp=F
 DIIS: error= 5.71D-03 at cycle   4 NSaved=   4.
 NSaved= 4 IEnMin= 4 EnMin= -1824.86370565157     IErMin= 4 ErrMin= 5.71D-03
 ErrMax= 5.71D-03  0.00D+00 EMaxC= 1.00D-01 BMatC= 1.12D-01 BMatP= 2.92D-01
 IDIUse=3 WtCom= 9.43D-01 WtEn= 5.71D-02
 Coeff-Com:  0.108D+00-0.132D+00 0.386D+00 0.637D+00
 Coeff-En:   0.000D+00 0.000D+00 0.243D+00 0.757D+00
 Coeff:      0.102D+00-0.124D+00 0.378D+00 0.644D+00
 Gap=     0.326 Goal=   None    Shift=    0.000
 Gap=     0.096 Goal=   None    Shift=    0.000
 RMSDP=3.33D-04 MaxDP=2.25D-02 DE=-3.63D-02 OVMax= 5.07D-02

 Cycle   5  Pass 1  IDiag  1:
 RMSU=  1.72D-04    CP:  1.00D+00  2.61D+00  9.41D-01  7.26D-01
 E= -1824.88335237993     Delta-E=       -0.019646728369 Rises=F Damp=F
 DIIS: error= 8.76D-04 at cycle   5 NSaved=   5.
 NSaved= 5 IEnMin= 5 EnMin= -1824.88335237993     IErMin= 5 ErrMin= 8.76D-04
 ErrMax= 8.76D-04  0.00D+00 EMaxC= 1.00D-01 BMatC= 3.47D-03 BMatP= 1.12D-01
 IDIUse=3 WtCom= 9.91D-01 WtEn= 8.76D-03
 Coeff-Com:  0.547D-01-0.734D-01 0.139D+00 0.279D+00 0.601D+00
 Coeff-En:   0.000D+00 0.000D+00 0.000D+00 0.000D+00 0.100D+01
 Coeff:      0.542D-01-0.727D-01 0.138D+00 0.276D+00 0.605D+00
 Gap=     0.322 Goal=   None    Shift=    0.000
 Gap=     0.095 Goal=   None    Shift=    0.000
 RMSDP=6.35D-05 MaxDP=3.59D-03 DE=-1.96D-02 OVMax= 6.91D-03

 Cycle   6  Pass 1  IDiag  1:
 RMSU=  5.94D-05    CP:  1.00D+00  2.62D+00  9.38D-01  7.48D-01  9.34D-01
 E= -1824.88402668463     Delta-E=       -0.000674304701 Rises=F Damp=F
 DIIS: error= 3.18D-04 at cycle   6 NSaved=   6.
 NSaved= 6 IEnMin= 6 EnMin= -1824.88402668463     IErMin= 6 ErrMin= 3.18D-04
 ErrMax= 3.18D-04  0.00D+00 EMaxC= 1.00D-01 BMatC= 3.52D-04 BMatP= 3.47D-03
 IDIUse=3 WtCom= 9.97D-01 WtEn= 3.18D-03
 Coeff-Com: -0.558D-03-0.707D-03-0.912D-02-0.953D-02 0.214D+00 0.806D+00
 Coeff-En:   0.000D+00 0.000D+00 0.000D+00 0.000D+00 0.000D+00 0.100D+01
 Coeff:     -0.556D-03-0.705D-03-0.909D-02-0.950D-02 0.214D+00 0.806D+00
 Gap=     0.321 Goal=   None    Shift=    0.000
 Gap=     0.096 Goal=   None    Shift=    0.000
 RMSDP=3.32D-05 MaxDP=1.64D-03 DE=-6.74D-04 OVMax= 8.97D-03

 Cycle   7  Pass 1  IDiag  1:
 RMSU=  2.48D-05    CP:  1.00D+00  2.61D+00  9.43D-01  7.52D-01  1.05D+00
                    CP:  1.08D+00
 E= -1824.88415439285     Delta-E=       -0.000127708220 Rises=F Damp=F
 DIIS: error= 1.20D-04 at cycle   7 NSaved=   7.
 NSaved= 7 IEnMin= 7 EnMin= -1824.88415439285     IErMin= 7 ErrMin= 1.20D-04
 ErrMax= 1.20D-04  0.00D+00 EMaxC= 1.00D-01 BMatC= 4.78D-05 BMatP= 3.52D-04
 IDIUse=3 WtCom= 9.99D-01 WtEn= 1.20D-03
 Coeff-Com: -0.516D-02 0.677D-02-0.167D-01-0.311D-01 0.224D-01 0.309D+00
 Coeff-Com:  0.715D+00
 Coeff-En:   0.000D+00 0.000D+00 0.000D+00 0.000D+00 0.000D+00 0.000D+00
 Coeff-En:   0.100D+01
 Coeff:     -0.515D-02 0.676D-02-0.167D-01-0.310D-01 0.223D-01 0.308D+00
 Coeff:      0.716D+00
 Gap=     0.321 Goal=   None    Shift=    0.000
 Gap=     0.097 Goal=   None    Shift=    0.000
 RMSDP=1.68D-05 MaxDP=8.12D-04 DE=-1.28D-04 OVMax= 5.96D-03

 Cycle   8  Pass 1  IDiag  1:
 RMSU=  1.05D-05    CP:  1.00D+00  2.61D+00  9.43D-01  7.50D-01  1.10D+00
                    CP:  1.22D+00  1.24D+00
 E= -1824.88419011895     Delta-E=       -0.000035726096 Rises=F Damp=F
 DIIS: error= 6.43D-05 at cycle   8 NSaved=   8.
 NSaved= 8 IEnMin= 8 EnMin= -1824.88419011895     IErMin= 8 ErrMin= 6.43D-05
 ErrMax= 6.43D-05  0.00D+00 EMaxC= 1.00D-01 BMatC= 9.46D-06 BMatP= 4.78D-05
 IDIUse=1 WtCom= 1.00D+00 WtEn= 0.00D+00
 Coeff-Com:  0.304D-03-0.265D-03-0.170D-02-0.440D-02-0.364D-01-0.908D-01
 Coeff-Com:  0.184D+00 0.949D+00
 Coeff:      0.304D-03-0.265D-03-0.170D-02-0.440D-02-0.364D-01-0.908D-01
 Coeff:      0.184D+00 0.949D+00
 Gap=     0.321 Goal=   None    Shift=    0.000
 Gap=     0.097 Goal=   None    Shift=    0.000
 RMSDP=1.51D-05 MaxDP=7.67D-04 DE=-3.57D-05 OVMax= 5.69D-03

 Cycle   9  Pass 1  IDiag  1:
 RMSU=  5.58D-06    CP:  1.00D+00  2.61D+00  9.43D-01  7.49D-01  1.13D+00
                    CP:  1.32D+00  1.64D+00  1.56D+00
 E= -1824.88421002471     Delta-E=       -0.000019905760 Rises=F Damp=F
 DIIS: error= 4.69D-05 at cycle   9 NSaved=   9.
 NSaved= 9 IEnMin= 9 EnMin= -1824.88421002471     IErMin= 9 ErrMin= 4.69D-05
 ErrMax= 4.69D-05  0.00D+00 EMaxC= 1.00D-01 BMatC= 3.07D-06 BMatP= 9.46D-06
 IDIUse=1 WtCom= 1.00D+00 WtEn= 0.00D+00
 Coeff-Com:  0.181D-02-0.239D-02 0.315D-02 0.538D-02-0.203D-01-0.108D+00
 Coeff-Com: -0.630D-01 0.384D+00 0.799D+00
 Coeff:      0.181D-02-0.239D-02 0.315D-02 0.538D-02-0.203D-01-0.108D+00
 Coeff:     -0.630D-01 0.384D+00 0.799D+00
 Gap=     0.321 Goal=   None    Shift=    0.000
 Gap=     0.097 Goal=   None    Shift=    0.000
 RMSDP=9.90D-06 MaxDP=5.40D-04 DE=-1.99D-05 OVMax= 4.20D-03

 Cycle  10  Pass 1  IDiag  1:
 RMSU=  2.80D-06    CP:  1.00D+00  2.61D+00  9.43D-01  7.49D-01  1.14D+00
                    CP:  1.38D+00  1.87D+00  2.05D+00  1.59D+00
 E= -1824.88421873065     Delta-E=       -0.000008705937 Rises=F Damp=F
 DIIS: error= 3.45D-05 at cycle  10 NSaved=  10.
 NSaved=10 IEnMin=10 EnMin= -1824.88421873065     IErMin=10 ErrMin= 3.45D-05
 ErrMax= 3.45D-05  0.00D+00 EMaxC= 1.00D-01 BMatC= 1.15D-06 BMatP= 3.07D-06
 IDIUse=1 WtCom= 1.00D+00 WtEn= 0.00D+00
 Coeff-Com:  0.591D-03-0.824D-03 0.167D-02 0.314D-02 0.768D-02-0.184D-03
 Coeff-Com: -0.819D-01-0.235D+00 0.268D+00 0.104D+01
 Coeff:      0.591D-03-0.824D-03 0.167D-02 0.314D-02 0.768D-02-0.184D-03
 Coeff:     -0.819D-01-0.235D+00 0.268D+00 0.104D+01
 Gap=     0.321 Goal=   None    Shift=    0.000
 Gap=     0.097 Goal=   None    Shift=    0.000
 RMSDP=9.82D-06 MaxDP=6.06D-04 DE=-8.71D-06 OVMax= 4.57D-03

 Cycle  11  Pass 1  IDiag  1:
 RMSU=  1.97D-06    CP:  1.00D+00  2.61D+00  9.43D-01  7.49D-01  1.15D+00
                    CP:  1.43D+00  2.08D+00  2.53D+00  2.47D+00  1.77D+00
 E= -1824.88422460904     Delta-E=       -0.000005878388 Rises=F Damp=F
 DIIS: error= 2.40D-05 at cycle  11 NSaved=  11.
 NSaved=11 IEnMin=11 EnMin= -1824.88422460904     IErMin=11 ErrMin= 2.40D-05
 ErrMax= 2.40D-05  0.00D+00 EMaxC= 1.00D-01 BMatC= 5.45D-07 BMatP= 1.15D-06
 IDIUse=1 WtCom= 1.00D+00 WtEn= 0.00D+00
 Coeff-Com: -0.382D-03 0.503D-03-0.203D-03-0.493D-03 0.114D-01 0.373D-01
 Coeff-Com: -0.225D-01-0.250D+00-0.121D+00 0.519D+00 0.826D+00
 Coeff:     -0.382D-03 0.503D-03-0.203D-03-0.493D-03 0.114D-01 0.373D-01
 Coeff:     -0.225D-01-0.250D+00-0.121D+00 0.519D+00 0.826D+00
 Gap=     0.321 Goal=   None    Shift=    0.000
 Gap=     0.097 Goal=   None    Shift=    0.000
 RMSDP=6.58D-06 MaxDP=4.33D-04 DE=-5.88D-06 OVMax= 3.17D-03

 Cycle  12  Pass 1  IDiag  1:
 RMSU=  1.20D-06    CP:  1.00D+00  2.61D+00  9.42D-01  7.48D-01  1.16D+00
                    CP:  1.46D+00  2.20D+00  2.85D+00  3.00D+00  2.57D+00
                    CP:  1.73D+00
 E= -1824.88422733835     Delta-E=       -0.000002729314 Rises=F Damp=F
 DIIS: error= 1.67D-05 at cycle  12 NSaved=  12.
 NSaved=12 IEnMin=12 EnMin= -1824.88422733835     IErMin=12 ErrMin= 1.67D-05
 ErrMax= 1.67D-05  0.00D+00 EMaxC= 1.00D-01 BMatC= 2.28D-07 BMatP= 5.45D-07
 IDIUse=1 WtCom= 1.00D+00 WtEn= 0.00D+00
 Coeff-Com: -0.292D-03 0.406D-03-0.417D-03-0.111D-02 0.161D-02 0.111D-01
 Coeff-Com:  0.141D-01 0.190D-01-0.951D-01-0.265D+00 0.149D+00 0.117D+01
 Coeff:     -0.292D-03 0.406D-03-0.417D-03-0.111D-02 0.161D-02 0.111D-01
 Coeff:      0.141D-01 0.190D-01-0.951D-01-0.265D+00 0.149D+00 0.117D+01
 Gap=     0.321 Goal=   None    Shift=    0.000
 Gap=     0.097 Goal=   None    Shift=    0.000
 RMSDP=5.89D-06 MaxDP=3.94D-04 DE=-2.73D-06 OVMax= 2.74D-03

 Cycle  13  Pass 1  IDiag  1:
 RMSU=  3.04D-06    CP:  1.00D+00  2.61D+00  9.42D-01  7.48D-01  1.16D+00
                    CP:  1.48D+00  2.29D+00  3.00D+00  3.00D+00  3.00D+00
                    CP:  2.90D+00  2.64D+00
 E= -1824.88422914042     Delta-E=       -0.000001802066 Rises=F Damp=F
 DIIS: error= 1.14D-05 at cycle  13 NSaved=  13.
 NSaved=13 IEnMin=13 EnMin= -1824.88422914042     IErMin=13 ErrMin= 1.14D-05
 ErrMax= 1.14D-05  0.00D+00 EMaxC= 1.00D-01 BMatC= 1.40D-07 BMatP= 2.28D-07
 IDIUse=1 WtCom= 1.00D+00 WtEn= 0.00D+00
 Coeff-Com:  0.132D-03-0.171D-03 0.221D-03 0.991D-04-0.326D-02-0.121D-01
 Coeff-Com:  0.325D-02 0.116D+00 0.549D-01-0.320D+00-0.394D+00 0.449D+00
 Coeff-Com:  0.111D+01
 Coeff:      0.132D-03-0.171D-03 0.221D-03 0.991D-04-0.326D-02-0.121D-01
 Coeff:      0.325D-02 0.116D+00 0.549D-01-0.320D+00-0.394D+00 0.449D+00
 Coeff:      0.111D+01
 Gap=     0.321 Goal=   None    Shift=    0.000
 Gap=     0.097 Goal=   None    Shift=    0.000
 RMSDP=5.03D-06 MaxDP=3.22D-04 DE=-1.80D-06 OVMax= 2.12D-03

 Cycle  14  Pass 1  IDiag  1:
 RMSU=  3.08D-06    CP:  1.00D+00  2.61D+00  9.42D-01  7.48D-01  1.16D+00
                    CP:  1.49D+00  2.36D+00  3.00D+00  3.00D+00  3.00D+00
                    CP:  3.00D+00  3.00D+00  2.03D+00
 E= -1824.88423026955     Delta-E=       -0.000001129137 Rises=F Damp=F
 DIIS: error= 9.03D-06 at cycle  14 NSaved=  14.
 NSaved=14 IEnMin=14 EnMin= -1824.88423026955     IErMin=14 ErrMin= 9.03D-06
 ErrMax= 9.03D-06  0.00D+00 EMaxC= 1.00D-01 BMatC= 8.18D-08 BMatP= 1.40D-07
 IDIUse=1 WtCom= 1.00D+00 WtEn= 0.00D+00
 Coeff-Com:  0.200D-03-0.265D-03 0.525D-03 0.747D-03-0.616D-03-0.859D-02
 Coeff-Com: -0.187D-01 0.138D-01 0.947D-01 0.983D-01-0.241D+00-0.536D+00
 Coeff-Com:  0.329D+00 0.127D+01
 Coeff:      0.200D-03-0.265D-03 0.525D-03 0.747D-03-0.616D-03-0.859D-02
 Coeff:     -0.187D-01 0.138D-01 0.947D-01 0.983D-01-0.241D+00-0.536D+00
 Coeff:      0.329D+00 0.127D+01
 Gap=     0.321 Goal=   None    Shift=    0.000
 Gap=     0.097 Goal=   None    Shift=    0.000
 RMSDP=4.42D-06 MaxDP=2.62D-04 DE=-1.13D-06 OVMax= 1.70D-03

 Cycle  15  Pass 1  IDiag  1:
 RMSU=  8.44D-07    CP:  1.00D+00  2.61D+00  9.42D-01  7.48D-01  1.17D+00
                    CP:  1.50D+00  2.41D+00  3.00D+00  3.00D+00  3.00D+00
                    CP:  3.00D+00  3.00D+00  2.88D+00  2.06D+00
 E= -1824.88423100866     Delta-E=       -0.000000739106 Rises=F Damp=F
 DIIS: error= 8.48D-06 at cycle  15 NSaved=  15.
 NSaved=15 IEnMin=15 EnMin= -1824.88423100866     IErMin=15 ErrMin= 8.48D-06
 ErrMax= 8.48D-06  0.00D+00 EMaxC= 1.00D-01 BMatC= 5.09D-08 BMatP= 8.18D-08
 IDIUse=1 WtCom= 1.00D+00 WtEn= 0.00D+00
 Coeff-Com:  0.122D-04-0.107D-04 0.247D-03 0.302D-03 0.188D-02 0.240D-02
 Coeff-Com: -0.142D-01-0.411D-01 0.267D-01 0.175D+00 0.302D-01-0.351D+00
 Coeff-Com: -0.296D+00 0.372D+00 0.109D+01
 Coeff:      0.122D-04-0.107D-04 0.247D-03 0.302D-03 0.188D-02 0.240D-02
 Coeff:     -0.142D-01-0.411D-01 0.267D-01 0.175D+00 0.302D-01-0.351D+00
 Coeff:     -0.296D+00 0.372D+00 0.109D+01
 Gap=     0.321 Goal=   None    Shift=    0.000
 Gap=     0.097 Goal=   None    Shift=    0.000
 RMSDP=2.72D-06 MaxDP=1.71D-04 DE=-7.39D-07 OVMax= 1.12D-03

 Cycle  16  Pass 1  IDiag  1:
 RMSU=  1.06D-06    CP:  1.00D+00  2.61D+00  9.42D-01  7.48D-01  1.17D+00
                    CP:  1.50D+00  2.43D+00  3.00D+00  3.00D+00  3.00D+00
                    CP:  3.00D+00  3.00D+00  3.00D+00  2.71D+00  2.14D+00
 E= -1824.88423138731     Delta-E=       -0.000000378652 Rises=F Damp=F
 DIIS: error= 8.11D-06 at cycle  16 NSaved=  16.
 NSaved=16 IEnMin=16 EnMin= -1824.88423138731     IErMin=16 ErrMin= 8.11D-06
 ErrMax= 8.11D-06  0.00D+00 EMaxC= 1.00D-01 BMatC= 3.27D-08 BMatP= 5.09D-08
 IDIUse=1 WtCom= 1.00D+00 WtEn= 0.00D+00
 Coeff-Com: -0.100D-03 0.135D-03-0.897D-04-0.191D-03 0.132D-02 0.536D-02
 Coeff-Com: -0.134D-03-0.199D-01-0.321D-01 0.577D-02 0.971D-01 0.205D+00
 Coeff-Com: -0.237D+00-0.607D+00 0.120D+00 0.146D+01
 Coeff:     -0.100D-03 0.135D-03-0.897D-04-0.191D-03 0.132D-02 0.536D-02
 Coeff:     -0.134D-03-0.199D-01-0.321D-01 0.577D-02 0.971D-01 0.205D+00
 Coeff:     -0.237D+00-0.607D+00 0.120D+00 0.146D+01
 Gap=     0.321 Goal=   None    Shift=    0.000
 Gap=     0.097 Goal=   None    Shift=    0.000
 RMSDP=2.96D-06 MaxDP=1.88D-04 DE=-3.79D-07 OVMax= 1.27D-03

 Cycle  17  Pass 1  IDiag  1:
 RMSU=  1.37D-06    CP:  1.00D+00  2.61D+00  9.42D-01  7.48D-01  1.17D+00
                    CP:  1.50D+00  2.46D+00  3.00D+00  3.00D+00  3.00D+00
                    CP:  3.00D+00  3.00D+00  3.00D+00  3.00D+00  3.00D+00
                    CP:  2.41D+00
 E= -1824.88423174407     Delta-E=       -0.000000356762 Rises=F Damp=F
 DIIS: error= 7.37D-06 at cycle  17 NSaved=  17.
 NSaved=17 IEnMin=17 EnMin= -1824.88423174407     IErMin=17 ErrMin= 7.37D-06
 ErrMax= 7.37D-06  0.00D+00 EMaxC= 1.00D-01 BMatC= 2.43D-08 BMatP= 3.27D-08
 IDIUse=1 WtCom= 1.00D+00 WtEn= 0.00D+00
 Coeff-Com: -0.141D-04 0.159D-04-0.720D-04-0.630D-04-0.724D-03-0.792D-03
 Coeff-Com:  0.404D-02 0.224D-01-0.790D-02-0.879D-01-0.428D-01 0.219D+00
 Coeff-Com:  0.153D+00-0.228D+00-0.754D+00 0.395D+00 0.133D+01
 Coeff:     -0.141D-04 0.159D-04-0.720D-04-0.630D-04-0.724D-03-0.792D-03
 Coeff:      0.404D-02 0.224D-01-0.790D-02-0.879D-01-0.428D-01 0.219D+00
 Coeff:      0.153D+00-0.228D+00-0.754D+00 0.395D+00 0.133D+01
 Gap=     0.321 Goal=   None    Shift=    0.000
 Gap=     0.098 Goal=   None    Shift=    0.000
 RMSDP=2.22D-06 MaxDP=1.80D-04 DE=-3.57D-07 OVMax= 1.11D-03

 Cycle  18  Pass 1  IDiag  1:
 RMSU=  7.25D-07    CP:  1.00D+00  2.61D+00  9.42D-01  7.49D-01  1.17D+00
                    CP:  1.51D+00  2.47D+00  3.00D+00  3.00D+00  3.00D+00
                    CP:  3.00D+00  3.00D+00  3.00D+00  3.00D+00  3.00D+00
                    CP:  3.00D+00  2.36D+00
 E= -1824.88423200306     Delta-E=       -0.000000258987 Rises=F Damp=F
 DIIS: error= 6.61D-06 at cycle  18 NSaved=  18.
 NSaved=18 IEnMin=18 EnMin= -1824.88423200306     IErMin=18 ErrMin= 6.61D-06
 ErrMax= 6.61D-06  0.00D+00 EMaxC= 1.00D-01 BMatC= 1.93D-08 BMatP= 2.43D-08
 IDIUse=1 WtCom= 1.00D+00 WtEn= 0.00D+00
 Coeff-Com:  0.375D-04-0.511D-04 0.115D-04 0.796D-04-0.114D-02-0.325D-02
 Coeff-Com:  0.196D-02 0.243D-01 0.138D-01-0.502D-01-0.913D-01 0.126D-01
 Coeff-Com:  0.224D+00 0.249D+00-0.534D+00-0.586D+00 0.670D+00 0.107D+01
 Coeff:      0.375D-04-0.511D-04 0.115D-04 0.796D-04-0.114D-02-0.325D-02
 Coeff:      0.196D-02 0.243D-01 0.138D-01-0.502D-01-0.913D-01 0.126D-01
 Coeff:      0.224D+00 0.249D+00-0.534D+00-0.586D+00 0.670D+00 0.107D+01
 Gap=     0.321 Goal=   None    Shift=    0.000
 Gap=     0.098 Goal=   None    Shift=    0.000
 RMSDP=1.74D-06 MaxDP=1.64D-04 DE=-2.59D-07 OVMax= 1.01D-03

 Cycle  19  Pass 1  IDiag  1:
 RMSU=  5.92D-07    CP:  1.00D+00  2.61D+00  9.42D-01  7.49D-01  1.17D+00
                    CP:  1.51D+00  2.48D+00  3.00D+00  3.00D+00  3.00D+00
                    CP:  3.00D+00  3.00D+00  3.00D+00  3.00D+00  3.00D+00
                    CP:  3.00D+00  3.00D+00  2.40D+00
 E= -1824.88423220284     Delta-E=       -0.000000199781 Rises=F Damp=F
 DIIS: error= 6.01D-06 at cycle  19 NSaved=  19.
 NSaved=19 IEnMin=19 EnMin= -1824.88423220284     IErMin=19 ErrMin= 6.01D-06
 ErrMax= 6.01D-06  0.00D+00 EMaxC= 1.00D-01 BMatC= 1.56D-08 BMatP= 1.93D-08
 IDIUse=1 WtCom= 1.00D+00 WtEn= 0.00D+00
 Coeff-Com:  0.235D-04-0.281D-04 0.575D-04 0.854D-04 0.710D-04-0.742D-03
 Coeff-Com: -0.210D-02-0.897D-02 0.962D-02 0.674D-01-0.611D-02-0.203D+00
 Coeff-Com: -0.663D-01 0.342D+00 0.507D+00-0.642D+00-0.969D+00 0.384D+00
 Coeff-Com:  0.159D+01
 Coeff:      0.235D-04-0.281D-04 0.575D-04 0.854D-04 0.710D-04-0.742D-03
 Coeff:     -0.210D-02-0.897D-02 0.962D-02 0.674D-01-0.611D-02-0.203D+00
 Coeff:     -0.663D-01 0.342D+00 0.507D+00-0.642D+00-0.969D+00 0.384D+00
 Coeff:      0.159D+01
 Gap=     0.321 Goal=   None    Shift=    0.000
 Gap=     0.098 Goal=   None    Shift=    0.000
 RMSDP=2.35D-06 MaxDP=2.42D-04 DE=-2.00D-07 OVMax= 1.48D-03

 Cycle  20  Pass 1  IDiag  1:
 RMSU=  1.34D-06    CP:  1.00D+00  2.61D+00  9.42D-01  7.49D-01  1.17D+00
                    CP:  1.51D+00  2.48D+00  3.00D+00  3.00D+00  3.00D+00
                    CP:  3.00D+00  3.00D+00  3.00D+00  3.00D+00  3.00D+00
                    CP:  3.00D+00  3.00D+00  3.00D+00  3.00D+00
 E= -1824.88423245794     Delta-E=       -0.000000255100 Rises=F Damp=F
 DIIS: error= 5.17D-06 at cycle  20 NSaved=  20.
 NSaved=20 IEnMin=20 EnMin= -1824.88423245794     IErMin=20 ErrMin= 5.17D-06
 ErrMax= 5.17D-06  0.00D+00 EMaxC= 1.00D-01 BMatC= 1.30D-08 BMatP= 1.56D-08
 IDIUse=1 WtCom= 1.00D+00 WtEn= 0.00D+00
 Coeff-Com: -0.320D-04 0.424D-04-0.258D-04-0.726D-04 0.111D-02 0.310D-02
 Coeff-Com: -0.165D-02-0.289D-01-0.198D-01 0.878D-01 0.922D-01-0.926D-01
 Coeff-Com: -0.270D+00-0.999D-01 0.830D+00 0.230D+00-0.102D+01-0.988D+00
 Coeff-Com:  0.887D+00 0.139D+01
 Coeff:     -0.320D-04 0.424D-04-0.258D-04-0.726D-04 0.111D-02 0.310D-02
 Coeff:     -0.165D-02-0.289D-01-0.198D-01 0.878D-01 0.922D-01-0.926D-01
 Coeff:     -0.270D+00-0.999D-01 0.830D+00 0.230D+00-0.102D+01-0.988D+00
 Coeff:      0.887D+00 0.139D+01
 Gap=     0.321 Goal=   None    Shift=    0.000
 Gap=     0.098 Goal=   None    Shift=    0.000
 RMSDP=2.35D-06 MaxDP=2.53D-04 DE=-2.55D-07 OVMax= 1.54D-03

 Cycle  21  Pass 1  IDiag  1:
 Restarting incremental Fock formation.
 E= -1824.88423268911     Delta-E=       -0.000000231168 Rises=F Damp=F
 DIIS: error= 4.24D-06 at cycle  21 NSaved=  20.
 NSaved=20 IEnMin=20 EnMin= -1824.88423268911     IErMin=20 ErrMin= 4.24D-06
 ErrMax= 4.24D-06  0.00D+00 EMaxC= 1.00D-01 BMatC= 9.22D-09 BMatP= 1.30D-08
 IDIUse=1 WtCom= 1.00D+00 WtEn= 0.00D+00
 Coeff-Com: -0.553D-05-0.522D-04-0.236D-04 0.789D-04 0.816D-03 0.281D-02
 Coeff-Com:  0.238D-02-0.217D-01-0.211D-01 0.358D-01 0.137D+00-0.600D-01
 Coeff-Com: -0.333D+00-0.476D-01 0.483D+00 0.604D+00-0.914D+00-0.977D+00
 Coeff-Com:  0.451D+00 0.166D+01
 Coeff:     -0.553D-05-0.522D-04-0.236D-04 0.789D-04 0.816D-03 0.281D-02
 Coeff:      0.238D-02-0.217D-01-0.211D-01 0.358D-01 0.137D+00-0.600D-01
 Coeff:     -0.333D+00-0.476D-01 0.483D+00 0.604D+00-0.914D+00-0.977D+00
 Coeff:      0.451D+00 0.166D+01
 Gap=     0.321 Goal=   None    Shift=    0.000
 Gap=     0.098 Goal=   None    Shift=    0.000
 RMSDP=3.42D-06 MaxDP=3.69D-04 DE=-2.31D-07 OVMax= 2.25D-03

 Cycle  22  Pass 1  IDiag  1:
 RMSU=  3.42D-06    CP:  1.00D+00
 E= -1824.88423295109     Delta-E=       -0.000000261981 Rises=F Damp=F
 DIIS: error= 2.87D-06 at cycle  22 NSaved=  20.
 NSaved=20 IEnMin=20 EnMin= -1824.88423295109     IErMin=20 ErrMin= 2.87D-06
 ErrMax= 2.87D-06  0.00D+00 EMaxC= 1.00D-01 BMatC= 6.29D-09 BMatP= 9.22D-09
 IDIUse=1 WtCom= 1.00D+00 WtEn= 0.00D+00
 Coeff-Com: -0.106D-03-0.101D-03-0.126D-02-0.183D-02 0.637D-02 0.299D-01
 Coeff-Com: -0.769D-02-0.942D-01-0.594D-01 0.172D+00 0.204D+00-0.425D-01
 Coeff-Com: -0.740D+00-0.256D+00 0.140D+01 0.673D+00-0.105D+01-0.168D+01
 Coeff-Com:  0.738D+00 0.171D+01
 Coeff:     -0.106D-03-0.101D-03-0.126D-02-0.183D-02 0.637D-02 0.299D-01
 Coeff:     -0.769D-02-0.942D-01-0.594D-01 0.172D+00 0.204D+00-0.425D-01
 Coeff:     -0.740D+00-0.256D+00 0.140D+01 0.673D+00-0.105D+01-0.168D+01
 Coeff:      0.738D+00 0.171D+01
 Gap=     0.321 Goal=   None    Shift=    0.000
 Gap=     0.098 Goal=   None    Shift=    0.000
 RMSDP=4.02D-06 MaxDP=4.31D-04 DE=-2.62D-07 OVMax= 2.62D-03

 Cycle  23  Pass 1  IDiag  1:
 RMSU=  5.39D-07    CP:  1.00D+00  2.17D+00
 E= -1824.88423315458     Delta-E=       -0.000000203491 Rises=F Damp=F
 DIIS: error= 1.39D-06 at cycle  23 NSaved=  20.
 NSaved=20 IEnMin=20 EnMin= -1824.88423315458     IErMin=20 ErrMin= 1.39D-06
 ErrMax= 1.39D-06  0.00D+00 EMaxC= 1.00D-01 BMatC= 2.84D-09 BMatP= 6.29D-09
 IDIUse=1 WtCom= 1.00D+00 WtEn= 0.00D+00
 Coeff-Com:  0.314D-04-0.135D-03-0.288D-03 0.174D-03-0.185D-02 0.116D-02
 Coeff-Com:  0.218D-01-0.120D-01-0.776D-01-0.106D-02 0.212D+00 0.141D+00
 Coeff-Com: -0.474D+00-0.194D+00 0.493D+00 0.596D+00-0.551D+00-0.647D+00
 Coeff-Com:  0.335D-01 0.146D+01
 Coeff:      0.314D-04-0.135D-03-0.288D-03 0.174D-03-0.185D-02 0.116D-02
 Coeff:      0.218D-01-0.120D-01-0.776D-01-0.106D-02 0.212D+00 0.141D+00
 Coeff:     -0.474D+00-0.194D+00 0.493D+00 0.596D+00-0.551D+00-0.647D+00
 Coeff:      0.335D-01 0.146D+01
 Gap=     0.321 Goal=   None    Shift=    0.000
 Gap=     0.098 Goal=   None    Shift=    0.000
 RMSDP=2.13D-06 MaxDP=2.17D-04 DE=-2.03D-07 OVMax= 1.30D-03

 Cycle  24  Pass 1  IDiag  1:
 RMSU=  1.21D-07    CP:  1.00D+00  2.76D+00  2.22D+00
 E= -1824.88423321591     Delta-E=       -0.000000061325 Rises=F Damp=F
 DIIS: error= 8.90D-07 at cycle  24 NSaved=  20.
 NSaved=20 IEnMin=20 EnMin= -1824.88423321591     IErMin=20 ErrMin= 8.90D-07
 ErrMax= 8.90D-07  0.00D+00 EMaxC= 1.00D-01 BMatC= 1.13D-09 BMatP= 2.84D-09
 IDIUse=1 WtCom= 1.00D+00 WtEn= 0.00D+00
 Coeff-Com:  0.899D-04-0.466D-04-0.577D-03-0.562D-02 0.190D-02 0.345D-01
 Coeff-Com:  0.529D-02-0.853D-01-0.605D-01 0.119D+00 0.317D+00-0.209D+00
 Coeff-Com: -0.521D+00-0.238D-01 0.648D+00 0.307D+00-0.437D+00-0.653D+00
 Coeff-Com:  0.488D+00 0.107D+01
 Coeff:      0.899D-04-0.466D-04-0.577D-03-0.562D-02 0.190D-02 0.345D-01
 Coeff:      0.529D-02-0.853D-01-0.605D-01 0.119D+00 0.317D+00-0.209D+00
 Coeff:     -0.521D+00-0.238D-01 0.648D+00 0.307D+00-0.437D+00-0.653D+00
 Coeff:      0.488D+00 0.107D+01
 Gap=     0.321 Goal=   None    Shift=    0.000
 Gap=     0.098 Goal=   None    Shift=    0.000
 RMSDP=1.29D-06 MaxDP=1.31D-04 DE=-6.13D-08 OVMax= 7.85D-04

 Cycle  25  Pass 1  IDiag  1:
 RMSU=  4.31D-07    CP:  1.00D+00  3.00D+00  2.84D+00  1.44D+00
 E= -1824.88423323506     Delta-E=       -0.000000019153 Rises=F Damp=F
 DIIS: error= 5.90D-07 at cycle  25 NSaved=  20.
 NSaved=20 IEnMin=20 EnMin= -1824.88423323506     IErMin=20 ErrMin= 5.90D-07
 ErrMax= 5.90D-07  0.00D+00 EMaxC= 1.00D-01 BMatC= 4.72D-10 BMatP= 1.13D-09
 IDIUse=1 WtCom= 1.00D+00 WtEn= 0.00D+00
 Coeff-Com: -0.802D-04 0.121D-03 0.100D-03-0.307D-02-0.206D-02 0.581D-02
 Coeff-Com:  0.243D-01-0.146D-01-0.702D-01 0.291D-02 0.107D+00 0.567D-01
 Coeff-Com: -0.197D+00-0.104D+00 0.199D+00 0.219D+00-0.193D+00-0.476D+00
 Coeff-Com:  0.384D+00 0.106D+01
 Coeff:     -0.802D-04 0.121D-03 0.100D-03-0.307D-02-0.206D-02 0.581D-02
 Coeff:      0.243D-01-0.146D-01-0.702D-01 0.291D-02 0.107D+00 0.567D-01
 Coeff:     -0.197D+00-0.104D+00 0.199D+00 0.219D+00-0.193D+00-0.476D+00
 Coeff:      0.384D+00 0.106D+01
 Gap=     0.321 Goal=   None    Shift=    0.000
 Gap=     0.098 Goal=   None    Shift=    0.000
 RMSDP=6.02D-07 MaxDP=5.66D-05 DE=-1.92D-08 OVMax= 3.35D-04

 Cycle  26  Pass 1  IDiag  1:
 RMSU=  1.53D-07    CP:  1.00D+00  3.00D+00  3.00D+00  1.73D+00  2.29D+00
 E= -1824.88423323991     Delta-E=       -0.000000004846 Rises=F Damp=F
 DIIS: error= 3.10D-07 at cycle  26 NSaved=  20.
 NSaved=20 IEnMin=20 EnMin= -1824.88423323991     IErMin=20 ErrMin= 3.10D-07
 ErrMax= 3.10D-07  0.00D+00 EMaxC= 1.00D-01 BMatC= 1.98D-10 BMatP= 4.72D-10
 IDIUse=1 WtCom= 1.00D+00 WtEn= 0.00D+00
 Coeff-Com:  0.129D-03 0.157D-02-0.114D-02-0.636D-02-0.532D-03 0.218D-01
 Coeff-Com:  0.638D-02-0.487D-01-0.350D-01 0.105D+00 0.105D+00-0.152D+00
 Coeff-Com: -0.190D+00 0.578D-01 0.265D+00 0.893D-01-0.457D+00-0.230D+00
 Coeff-Com:  0.445D+00 0.102D+01
 Coeff:      0.129D-03 0.157D-02-0.114D-02-0.636D-02-0.532D-03 0.218D-01
 Coeff:      0.638D-02-0.487D-01-0.350D-01 0.105D+00 0.105D+00-0.152D+00
 Coeff:     -0.190D+00 0.578D-01 0.265D+00 0.893D-01-0.457D+00-0.230D+00
 Coeff:      0.445D+00 0.102D+01
 Gap=     0.321 Goal=   None    Shift=    0.000
 Gap=     0.097 Goal=   None    Shift=    0.000
 RMSDP=3.82D-07 MaxDP=2.93D-05 DE=-4.85D-09 OVMax= 1.71D-04

 Cycle  27  Pass 1  IDiag  1:
 RMSU=  1.03D-07    CP:  1.00D+00  3.00D+00  3.00D+00  2.46D+00  2.96D+00
                    CP:  2.35D+00
 E= -1824.88423324131     Delta-E=       -0.000000001408 Rises=F Damp=F
 DIIS: error= 1.79D-07 at cycle  27 NSaved=  20.
 NSaved=20 IEnMin=20 EnMin= -1824.88423324131     IErMin=20 ErrMin= 1.79D-07
 ErrMax= 1.79D-07  0.00D+00 EMaxC= 1.00D-01 BMatC= 4.18D-11 BMatP= 1.98D-10
 IDIUse=1 WtCom= 1.00D+00 WtEn= 0.00D+00
 Coeff-Com:  0.534D-03-0.364D-03-0.251D-02-0.127D-02 0.682D-02 0.655D-02
 Coeff-Com: -0.437D-02-0.337D-01 0.191D-02 0.592D-01 0.205D-01-0.363D-01
 Coeff-Com: -0.842D-01 0.192D-01 0.962D-01 0.447D-01-0.170D+00-0.177D+00
 Coeff-Com:  0.207D+00 0.105D+01
 Coeff:      0.534D-03-0.364D-03-0.251D-02-0.127D-02 0.682D-02 0.655D-02
 Coeff:     -0.437D-02-0.337D-01 0.191D-02 0.592D-01 0.205D-01-0.363D-01
 Coeff:     -0.842D-01 0.192D-01 0.962D-01 0.447D-01-0.170D+00-0.177D+00
 Coeff:      0.207D+00 0.105D+01
 Gap=     0.321 Goal=   None    Shift=    0.000
 Gap=     0.097 Goal=   None    Shift=    0.000
 RMSDP=9.90D-08 MaxDP=7.49D-06 DE=-1.41D-09 OVMax= 5.06D-05

 Cycle  28  Pass 1  IDiag  1:
 RMSU=  7.90D-08    CP:  1.00D+00  3.00D+00  3.00D+00  2.53D+00  3.00D+00
                    CP:  2.54D+00  1.03D+00
 E= -1824.88423324163     Delta-E=       -0.000000000315 Rises=F Damp=F
 DIIS: error= 1.27D-07 at cycle  28 NSaved=  20.
 NSaved=20 IEnMin=20 EnMin= -1824.88423324163     IErMin=20 ErrMin= 1.27D-07
 ErrMax= 1.27D-07  0.00D+00 EMaxC= 1.00D-01 BMatC= 1.51D-11 BMatP= 4.18D-11
 IDIUse=1 WtCom= 1.00D+00 WtEn= 0.00D+00
 Coeff-Com:  0.383D-03 0.950D-03-0.176D-02-0.497D-02 0.167D-02 0.172D-01
 Coeff-Com: -0.312D-02-0.324D-01-0.153D-01 0.459D-01 0.559D-01-0.448D-01
 Coeff-Com: -0.744D-01 0.537D-02 0.152D+00 0.175D-01-0.186D+00-0.268D+00
 Coeff-Com:  0.296D+00 0.104D+01
 Coeff:      0.383D-03 0.950D-03-0.176D-02-0.497D-02 0.167D-02 0.172D-01
 Coeff:     -0.312D-02-0.324D-01-0.153D-01 0.459D-01 0.559D-01-0.448D-01
 Coeff:     -0.744D-01 0.537D-02 0.152D+00 0.175D-01-0.186D+00-0.268D+00
 Coeff:      0.296D+00 0.104D+01
 Gap=     0.321 Goal=   None    Shift=    0.000
 Gap=     0.097 Goal=   None    Shift=    0.000
 RMSDP=5.54D-08 MaxDP=3.61D-06 DE=-3.15D-10 OVMax= 2.95D-05

 Cycle  29  Pass 1  IDiag  1:
 RMSU=  1.45D-08    CP:  1.00D+00  3.00D+00  3.00D+00  2.58D+00  3.00D+00
                    CP:  2.59D+00  1.10D+00  1.66D+00
 E= -1824.88423324173     Delta-E=       -0.000000000097 Rises=F Damp=F
 DIIS: error= 9.94D-08 at cycle  29 NSaved=  20.
 NSaved=20 IEnMin=20 EnMin= -1824.88423324173     IErMin=20 ErrMin= 9.94D-08
 ErrMax= 9.94D-08  0.00D+00 EMaxC= 1.00D-01 BMatC= 6.46D-12 BMatP= 1.51D-11
 IDIUse=1 WtCom= 1.00D+00 WtEn= 0.00D+00
 Coeff-Com:  0.391D-03-0.391D-03-0.683D-03-0.163D-02 0.205D-02 0.714D-02
 Coeff-Com:  0.194D-02-0.228D-01-0.692D-02 0.267D-01 0.219D-01-0.252D-01
 Coeff-Com: -0.302D-01 0.259D-01 0.527D-01 0.120D-01-0.153D+00-0.226D+00
 Coeff-Com:  0.269D+00 0.105D+01
 Coeff:      0.391D-03-0.391D-03-0.683D-03-0.163D-02 0.205D-02 0.714D-02
 Coeff:      0.194D-02-0.228D-01-0.692D-02 0.267D-01 0.219D-01-0.252D-01
 Coeff:     -0.302D-01 0.259D-01 0.527D-01 0.120D-01-0.153D+00-0.226D+00
 Coeff:      0.269D+00 0.105D+01
 Gap=     0.321 Goal=   None    Shift=    0.000
 Gap=     0.097 Goal=   None    Shift=    0.000
 RMSDP=3.68D-08 MaxDP=2.60D-06 DE=-9.73D-11 OVMax= 2.04D-05

 Cycle  30  Pass 1  IDiag  1:
 RMSU=  6.06D-09    CP:  1.00D+00  3.00D+00  3.00D+00  2.64D+00  3.00D+00
                    CP:  2.66D+00  1.19D+00  2.03D+00  2.01D+00
 E= -1824.88423324182     Delta-E=       -0.000000000091 Rises=F Damp=F
 DIIS: error= 7.79D-08 at cycle  30 NSaved=  20.
 NSaved=20 IEnMin=20 EnMin= -1824.88423324182     IErMin=20 ErrMin= 7.79D-08
 ErrMax= 7.79D-08  0.00D+00 EMaxC= 1.00D-01 BMatC= 3.21D-12 BMatP= 6.46D-12
 IDIUse=1 WtCom= 1.00D+00 WtEn= 0.00D+00
 Coeff-Com: -0.259D-03 0.105D-02 0.197D-03-0.408D-02-0.104D-02 0.143D-01
 Coeff-Com:  0.279D-02-0.184D-01-0.181D-01 0.204D-01 0.232D-01-0.189D-02
 Coeff-Com: -0.625D-01-0.505D-02 0.938D-01 0.897D-01-0.196D+00-0.569D+00
 Coeff-Com:  0.225D+00 0.141D+01
 Coeff:     -0.259D-03 0.105D-02 0.197D-03-0.408D-02-0.104D-02 0.143D-01
 Coeff:      0.279D-02-0.184D-01-0.181D-01 0.204D-01 0.232D-01-0.189D-02
 Coeff:     -0.625D-01-0.505D-02 0.938D-01 0.897D-01-0.196D+00-0.569D+00
 Coeff:      0.225D+00 0.141D+01
 Gap=     0.321 Goal=   None    Shift=    0.000
 Gap=     0.097 Goal=   None    Shift=    0.000
 RMSDP=4.45D-08 MaxDP=3.12D-06 DE=-9.09D-11 OVMax= 2.54D-05

 Cycle  31  Pass 1  IDiag  1:
 RMSU=  6.91D-09    CP:  1.00D+00  3.00D+00  3.00D+00  2.70D+00  3.00D+00
                    CP:  2.73D+00  1.30D+00  2.47D+00  3.00D+00  2.36D+00
 E= -1824.88423324187     Delta-E=       -0.000000000055 Rises=F Damp=F
 DIIS: error= 4.08D-08 at cycle  31 NSaved=  20.
 NSaved=20 IEnMin=20 EnMin= -1824.88423324187     IErMin=20 ErrMin= 4.08D-08
 ErrMax= 4.08D-08  0.00D+00 EMaxC= 1.00D-01 BMatC= 1.04D-12 BMatP= 3.21D-12
 IDIUse=1 WtCom= 1.00D+00 WtEn= 0.00D+00
 Coeff-Com:  0.175D-03 0.480D-03-0.568D-03-0.318D-02 0.511D-03 0.582D-02
 Coeff-Com:  0.149D-02-0.781D-02-0.567D-02 0.715D-02 0.107D-01-0.634D-02
 Coeff-Com: -0.177D-01-0.507D-02 0.527D-01 0.688D-01-0.134D+00-0.377D+00
 Coeff-Com:  0.585D-01 0.135D+01
 Coeff:      0.175D-03 0.480D-03-0.568D-03-0.318D-02 0.511D-03 0.582D-02
 Coeff:      0.149D-02-0.781D-02-0.567D-02 0.715D-02 0.107D-01-0.634D-02
 Coeff:     -0.177D-01-0.507D-02 0.527D-01 0.688D-01-0.134D+00-0.377D+00
 Coeff:      0.585D-01 0.135D+01
 Gap=     0.321 Goal=   None    Shift=    0.000
 Gap=     0.097 Goal=   None    Shift=    0.000
 RMSDP=2.94D-08 MaxDP=1.86D-06 DE=-5.46D-11 OVMax= 1.61D-05

 Cycle  32  Pass 1  IDiag  1:
 RMSU=  7.01D-09    CP:  1.00D+00  3.00D+00  3.00D+00  2.72D+00  3.00D+00
                    CP:  2.73D+00  1.33D+00  2.78D+00  3.00D+00  3.00D+00
                    CP:  2.90D+00
 E= -1824.88423324176     Delta-E=        0.000000000114 Rises=F Damp=F
 DIIS: error= 1.57D-08 at cycle  32 NSaved=  20.
 NSaved=20 IEnMin=19 EnMin= -1824.88423324187     IErMin=20 ErrMin= 1.57D-08
 ErrMax= 1.57D-08  0.00D+00 EMaxC= 1.00D-01 BMatC= 3.42D-13 BMatP= 1.04D-12
 IDIUse=1 WtCom= 1.00D+00 WtEn= 0.00D+00
 Coeff-Com:  0.118D-03 0.533D-03-0.704D-03-0.249D-02 0.144D-02 0.389D-02
 Coeff-Com:  0.237D-02-0.655D-02-0.403D-02 0.287D-02 0.155D-01-0.527D-02
 Coeff-Com: -0.308D-01-0.459D-02 0.795D-01 0.128D+00-0.207D+00-0.419D+00
 Coeff-Com:  0.504D+00 0.942D+00
 Coeff:      0.118D-03 0.533D-03-0.704D-03-0.249D-02 0.144D-02 0.389D-02
 Coeff:      0.237D-02-0.655D-02-0.403D-02 0.287D-02 0.155D-01-0.527D-02
 Coeff:     -0.308D-01-0.459D-02 0.795D-01 0.128D+00-0.207D+00-0.419D+00
 Coeff:      0.504D+00 0.942D+00
 Gap=     0.321 Goal=   None    Shift=    0.000
 Gap=     0.097 Goal=   None    Shift=    0.000
 RMSDP=1.26D-08 MaxDP=8.97D-07 DE= 1.14D-10 OVMax= 6.94D-06

 Cycle  33  Pass 1  IDiag  1:
 RMSU=  5.56D-09    CP:  1.00D+00  3.00D+00  3.00D+00  2.74D+00  3.00D+00
                    CP:  2.76D+00  1.37D+00  2.88D+00  3.00D+00  3.00D+00
                    CP:  3.00D+00  1.43D+00
 E= -1824.88423324179     Delta-E=       -0.000000000029 Rises=F Damp=F
 DIIS: error= 1.06D-08 at cycle  33 NSaved=  20.
 NSaved=20 IEnMin=18 EnMin= -1824.88423324187     IErMin=20 ErrMin= 1.06D-08
 ErrMax= 1.06D-08  0.00D+00 EMaxC= 1.00D-01 BMatC= 1.16D-13 BMatP= 3.42D-13
 IDIUse=1 WtCom= 1.00D+00 WtEn= 0.00D+00
 Coeff-Com:  0.285D-03 0.258D-03-0.104D-02-0.171D-04 0.810D-03 0.208D-02
 Coeff-Com: -0.198D-02-0.212D-02-0.357D-03 0.667D-02 0.311D-03-0.130D-01
 Coeff-Com: -0.116D-01 0.196D-01 0.903D-01-0.472D-02-0.202D+00-0.134D+00
 Coeff-Com:  0.401D+00 0.850D+00
 Coeff:      0.285D-03 0.258D-03-0.104D-02-0.171D-04 0.810D-03 0.208D-02
 Coeff:     -0.198D-02-0.212D-02-0.357D-03 0.667D-02 0.311D-03-0.130D-01
 Coeff:     -0.116D-01 0.196D-01 0.903D-01-0.472D-02-0.202D+00-0.134D+00
 Coeff:      0.401D+00 0.850D+00
 Gap=     0.321 Goal=   None    Shift=    0.000
 Gap=     0.097 Goal=   None    Shift=    0.000
 RMSDP=6.57D-09 MaxDP=4.56D-07 DE=-2.91D-11 OVMax= 3.48D-06

 Error on total polarization charges =  0.00285
 SCF Done:  E(UCAM-B3LYP) =  -1824.88423324     A.U. after   33 cycles
            NFock= 33  Conv=0.66D-08     -V/T= 2.0077
 <Sx>= 0.0000 <Sy>= 0.0000 <Sz>= 0.5000 <S**2>= 0.7521 S= 0.5011
 <L.S>= 0.000000000000E+00
 KE= 1.810944174410D+03 PE=-1.081830163040D+04 EE= 3.910453930169D+03
 Annihilation of the first spin contaminant:
 S**2 before annihilation     0.7521,   after     0.7500
 Leave Link  502 at Sun Mar  3 17:37:41 2024, MaxMem=  5368709120 cpu:      2104.4
 (Enter /home/k0335/k033513/app/g09/l601.exe)
 Copying SCF densities to generalized density rwf, IOpCl= 1 IROHF=0.

 **********************************************************************

            Population analysis using the SCF density.

 **********************************************************************

 Alpha  occ. eigenvalues --  -24.85610 -24.85437 -24.85186 -24.84860 -24.84765
 Alpha  occ. eigenvalues --  -24.84749 -24.84616 -24.84490 -24.84164 -19.35181
 Alpha  occ. eigenvalues --  -19.27933 -19.27511 -19.26190 -14.56015 -14.55565
 Alpha  occ. eigenvalues --  -14.53073 -10.61550 -10.56951 -10.55473 -10.50954
 Alpha  occ. eigenvalues --  -10.49786 -10.48622 -10.48035 -10.47770 -10.47166
 Alpha  occ. eigenvalues --  -10.44192 -10.33682 -10.27933  -1.45084  -1.43270
 Alpha  occ. eigenvalues --   -1.40940  -1.37482  -1.35313  -1.35231  -1.34341
 Alpha  occ. eigenvalues --   -1.33591  -1.33343  -1.26075  -1.22722  -1.20961
 Alpha  occ. eigenvalues --   -1.20506  -1.12895  -1.11628  -1.09333  -1.04680
 Alpha  occ. eigenvalues --   -0.95758  -0.94020  -0.89137  -0.87033  -0.84040
 Alpha  occ. eigenvalues --   -0.82370  -0.81434  -0.78659  -0.77374  -0.76364
 Alpha  occ. eigenvalues --   -0.75162  -0.74652  -0.73714  -0.72259  -0.71547
 Alpha  occ. eigenvalues --   -0.70423  -0.70093  -0.69646  -0.68793  -0.68167
 Alpha  occ. eigenvalues --   -0.66757  -0.66470  -0.63249  -0.62890  -0.61768
 Alpha  occ. eigenvalues --   -0.60120  -0.59470  -0.59161  -0.58807  -0.57999
 Alpha  occ. eigenvalues --   -0.57859  -0.57386  -0.56951  -0.56799  -0.56764
 Alpha  occ. eigenvalues --   -0.56493  -0.55603  -0.55280  -0.55100  -0.54135
 Alpha  occ. eigenvalues --   -0.54105  -0.53380  -0.53336  -0.52842  -0.52465
 Alpha  occ. eigenvalues --   -0.52175  -0.51913  -0.51721  -0.51605  -0.50723
 Alpha  occ. eigenvalues --   -0.50436  -0.49149  -0.47852  -0.47188  -0.46588
 Alpha  occ. eigenvalues --   -0.44603  -0.43719  -0.42757  -0.41963  -0.41189
 Alpha  occ. eigenvalues --   -0.39171  -0.38627
 Alpha virt. eigenvalues --   -0.06515  -0.05447  -0.02457  -0.01359   0.03731
 Alpha virt. eigenvalues --    0.06224   0.07814   0.08610   0.10787   0.11496
 Alpha virt. eigenvalues --    0.12824   0.13708   0.14622   0.15462   0.16365
 Alpha virt. eigenvalues --    0.17526   0.17874   0.18148   0.18628   0.19711
 Alpha virt. eigenvalues --    0.19966   0.20683   0.20844   0.21676   0.22227
 Alpha virt. eigenvalues --    0.22843   0.23452   0.23734   0.24355   0.25779
 Alpha virt. eigenvalues --    0.26422   0.27307   0.27869   0.30479   0.31519
 Alpha virt. eigenvalues --    0.33647   0.34743   0.35586   0.36073   0.37715
 Alpha virt. eigenvalues --    0.37853   0.42449   0.43910   0.45845   0.46880
 Alpha virt. eigenvalues --    0.47442   0.49371   0.49855   0.50638   0.51864
 Alpha virt. eigenvalues --    0.52332   0.52746   0.53009   0.54620   0.54896
 Alpha virt. eigenvalues --    0.55158   0.55609   0.56657   0.57537   0.58806
 Alpha virt. eigenvalues --    0.59450   0.60389   0.61757   0.62004   0.63400
 Alpha virt. eigenvalues --    0.65119   0.66138   0.67294   0.67834   0.68743
 Alpha virt. eigenvalues --    0.69951   0.70747   0.72852   0.73830   0.76145
 Alpha virt. eigenvalues --    0.77401   0.79334   0.80229   0.81111   0.81806
 Alpha virt. eigenvalues --    0.82685   0.84159   0.85331   0.85755   0.86023
 Alpha virt. eigenvalues --    0.87559   0.88509   0.89590   0.90661   0.91184
 Alpha virt. eigenvalues --    0.91677   0.92334   0.93609   0.94494   0.96418
 Alpha virt. eigenvalues --    0.96761   0.98009   0.98338   0.99642   1.00920
 Alpha virt. eigenvalues --    1.02502   1.03606   1.04658   1.05471   1.06521
 Alpha virt. eigenvalues --    1.07377   1.07762   1.10010   1.10175   1.11786
 Alpha virt. eigenvalues --    1.11920   1.13070   1.14223   1.14686   1.15884
 Alpha virt. eigenvalues --    1.16361   1.17931   1.18124   1.20044   1.20949
 Alpha virt. eigenvalues --    1.21522   1.22366   1.24516   1.26245   1.26593
 Alpha virt. eigenvalues --    1.26985   1.29258   1.30222   1.31014   1.32192
 Alpha virt. eigenvalues --    1.32702   1.33036   1.34395   1.35209   1.36251
 Alpha virt. eigenvalues --    1.36374   1.37691   1.38180   1.38340   1.39410
 Alpha virt. eigenvalues --    1.39988   1.40841   1.42023   1.42498   1.43344
 Alpha virt. eigenvalues --    1.44679   1.45408   1.45849   1.46808   1.48290
 Alpha virt. eigenvalues --    1.48930   1.49306   1.50702   1.52523   1.52880
 Alpha virt. eigenvalues --    1.53092   1.53598   1.55404   1.56333   1.57514
 Alpha virt. eigenvalues --    1.58020   1.58712   1.59979   1.62194   1.62914
 Alpha virt. eigenvalues --    1.64470   1.67072   1.67557   1.69165   1.69970
 Alpha virt. eigenvalues --    1.71109   1.72259   1.72734   1.72903   1.73869
 Alpha virt. eigenvalues --    1.75897   1.77231   1.78440   1.78863   1.79866
 Alpha virt. eigenvalues --    1.79971   1.81193   1.81727   1.81832   1.83167
 Alpha virt. eigenvalues --    1.83624   1.84287   1.84678   1.85097   1.86600
 Alpha virt. eigenvalues --    1.86923   1.87141   1.87677   1.88821   1.89526
 Alpha virt. eigenvalues --    1.89852   1.90272   1.90715   1.91726   1.91979
 Alpha virt. eigenvalues --    1.92410   1.92792   1.94024   1.94959   1.95195
 Alpha virt. eigenvalues --    1.95995   1.96495   1.96969   1.97437   1.98767
 Alpha virt. eigenvalues --    1.99159   1.99644   2.00255   2.00485   2.01542
 Alpha virt. eigenvalues --    2.02068   2.02245   2.03286   2.03841   2.04290
 Alpha virt. eigenvalues --    2.05120   2.06258   2.07111   2.07380   2.08749
 Alpha virt. eigenvalues --    2.10264   2.10687   2.11358   2.12061   2.12439
 Alpha virt. eigenvalues --    2.13750   2.15045   2.15311   2.16736   2.17303
 Alpha virt. eigenvalues --    2.18343   2.18771   2.19660   2.21768   2.21935
 Alpha virt. eigenvalues --    2.24481   2.25541   2.25626   2.26469   2.27569
 Alpha virt. eigenvalues --    2.29491   2.30483   2.30657   2.33559   2.34042
 Alpha virt. eigenvalues --    2.34336   2.35176   2.36458   2.38010   2.39023
 Alpha virt. eigenvalues --    2.39903   2.41132   2.42228   2.43708   2.45280
 Alpha virt. eigenvalues --    2.47485   2.47782   2.49270   2.49587   2.53442
 Alpha virt. eigenvalues --    2.54903   2.57416   2.57849   2.59118   2.59939
 Alpha virt. eigenvalues --    2.61393   2.64140   2.64794   2.66677   2.67226
 Alpha virt. eigenvalues --    2.69223   2.69707   2.71192   2.72714   2.73081
 Alpha virt. eigenvalues --    2.75269   2.77840   2.79329   2.80771   2.81991
 Alpha virt. eigenvalues --    2.82442   2.85996   2.86989   2.88945   2.89777
 Alpha virt. eigenvalues --    2.90034   2.92258   2.92697   2.93817   2.94332
 Alpha virt. eigenvalues --    2.95985   2.96733   2.97310   2.97772   3.00650
 Alpha virt. eigenvalues --    3.01247   3.01778   3.03134   3.03989   3.04834
 Alpha virt. eigenvalues --    3.06620   3.11220   3.13479   3.14315   3.16741
 Alpha virt. eigenvalues --    3.18824   3.20939   3.24942   3.25585   3.27471
 Alpha virt. eigenvalues --    3.28955   3.32171   3.34140   3.39913   3.43073
 Alpha virt. eigenvalues --    3.44993   3.49059   3.53830   3.59135   3.61911
 Alpha virt. eigenvalues --    4.02997   4.09154   4.10546   4.15830   4.19858
 Alpha virt. eigenvalues --    4.22499   4.25851   4.32489   4.38583   4.43833
 Alpha virt. eigenvalues --    4.44970   4.46360   4.55002   4.58650   4.64426
 Alpha virt. eigenvalues --    4.69371   4.70950   4.74696   4.81487   4.85763
 Alpha virt. eigenvalues --    4.99234   5.07012   5.22671   5.30000   5.41101
 Alpha virt. eigenvalues --    5.65249   6.20489   6.61793
  Beta  occ. eigenvalues --  -24.85610 -24.85437 -24.85186 -24.84860 -24.84765
  Beta  occ. eigenvalues --  -24.84749 -24.84616 -24.84490 -24.84164 -19.35181
  Beta  occ. eigenvalues --  -19.27890 -19.27466 -19.26191 -14.56021 -14.55560
  Beta  occ. eigenvalues --  -14.53056 -10.61550 -10.56951 -10.55473 -10.50954
  Beta  occ. eigenvalues --  -10.49791 -10.48626 -10.48037 -10.47192 -10.46336
  Beta  occ. eigenvalues --  -10.44161 -10.33682 -10.27931  -1.45084  -1.43270
  Beta  occ. eigenvalues --   -1.40939  -1.37482  -1.35313  -1.35231  -1.34341
  Beta  occ. eigenvalues --   -1.33591  -1.33343  -1.26048  -1.22719  -1.20891
  Beta  occ. eigenvalues --   -1.20481  -1.12814  -1.11547  -1.09262  -1.01314
  Beta  occ. eigenvalues --   -0.95613  -0.93218  -0.89083  -0.87010  -0.84036
  Beta  occ. eigenvalues --   -0.82307  -0.81365  -0.78599  -0.77263  -0.76204
  Beta  occ. eigenvalues --   -0.74715  -0.74261  -0.73703  -0.72259  -0.71530
  Beta  occ. eigenvalues --   -0.70376  -0.70075  -0.69373  -0.68687  -0.68123
  Beta  occ. eigenvalues --   -0.66701  -0.66425  -0.63053  -0.61772  -0.60648
  Beta  occ. eigenvalues --   -0.59974  -0.59446  -0.59131  -0.58801  -0.57986
  Beta  occ. eigenvalues --   -0.57842  -0.57364  -0.56911  -0.56733  -0.56632
  Beta  occ. eigenvalues --   -0.56096  -0.55580  -0.55205  -0.54941  -0.54122
  Beta  occ. eigenvalues --   -0.54057  -0.53366  -0.53253  -0.52446  -0.52171
  Beta  occ. eigenvalues --   -0.51777  -0.51607  -0.50814  -0.50712  -0.50433
  Beta  occ. eigenvalues --   -0.49109  -0.47844  -0.47177  -0.46584  -0.44594
  Beta  occ. eigenvalues --   -0.43507  -0.42680  -0.41847  -0.41052  -0.39000
  Beta  occ. eigenvalues --   -0.38555
  Beta virt. eigenvalues --   -0.28805  -0.04684  -0.02493  -0.01295  -0.00703
  Beta virt. eigenvalues --    0.03736   0.06440   0.08459   0.08811   0.11082
  Beta virt. eigenvalues --    0.11638   0.13219   0.13787   0.14716   0.15463
  Beta virt. eigenvalues --    0.16446   0.17709   0.18019   0.18314   0.18743
  Beta virt. eigenvalues --    0.19755   0.19997   0.20695   0.20851   0.21712
  Beta virt. eigenvalues --    0.22277   0.22876   0.23458   0.23744   0.24414
  Beta virt. eigenvalues --    0.25783   0.26436   0.27313   0.27886   0.30500
  Beta virt. eigenvalues --    0.31573   0.33771   0.35017   0.35822   0.36150
  Beta virt. eigenvalues --    0.37952   0.38603   0.42694   0.45525   0.46670
  Beta virt. eigenvalues --    0.46976   0.47460   0.49413   0.49954   0.50671
  Beta virt. eigenvalues --    0.52174   0.52380   0.52771   0.53257   0.54741
  Beta virt. eigenvalues --    0.55013   0.55312   0.56316   0.56932   0.57724
  Beta virt. eigenvalues --    0.59041   0.59469   0.60494   0.61930   0.62617
  Beta virt. eigenvalues --    0.63544   0.65243   0.66336   0.67573   0.67893
  Beta virt. eigenvalues --    0.68990   0.70184   0.71524   0.72893   0.74021
  Beta virt. eigenvalues --    0.76349   0.77559   0.79434   0.80371   0.81293
  Beta virt. eigenvalues --    0.81980   0.82910   0.84331   0.85451   0.85896
  Beta virt. eigenvalues --    0.86210   0.87736   0.88727   0.89700   0.90729
  Beta virt. eigenvalues --    0.91250   0.91741   0.92367   0.93659   0.94604
  Beta virt. eigenvalues --    0.96487   0.96807   0.98040   0.98373   0.99684
  Beta virt. eigenvalues --    1.00944   1.02541   1.03683   1.05071   1.05696
  Beta virt. eigenvalues --    1.06569   1.07427   1.07953   1.10090   1.10264
  Beta virt. eigenvalues --    1.11914   1.12358   1.13301   1.14279   1.14724
  Beta virt. eigenvalues --    1.15890   1.16384   1.18021   1.18173   1.20181
  Beta virt. eigenvalues --    1.21023   1.21597   1.22452   1.24556   1.26273
  Beta virt. eigenvalues --    1.26614   1.27010   1.29263   1.30237   1.31046
  Beta virt. eigenvalues --    1.32285   1.32712   1.33047   1.34423   1.35225
  Beta virt. eigenvalues --    1.36374   1.36406   1.37738   1.38184   1.38417
  Beta virt. eigenvalues --    1.40158   1.41564   1.41975   1.43286   1.43916
  Beta virt. eigenvalues --    1.44268   1.44938   1.45536   1.45959   1.46943
  Beta virt. eigenvalues --    1.48367   1.49009   1.49430   1.50796   1.52736
  Beta virt. eigenvalues --    1.53342   1.53615   1.54740   1.55630   1.56747
  Beta virt. eigenvalues --    1.57579   1.58166   1.58856   1.59995   1.62395
  Beta virt. eigenvalues --    1.63143   1.64555   1.67103   1.67594   1.69209
  Beta virt. eigenvalues --    1.70056   1.71147   1.72280   1.72774   1.73033
  Beta virt. eigenvalues --    1.73897   1.76022   1.77397   1.78965   1.79645
  Beta virt. eigenvalues --    1.80633   1.81223   1.81431   1.81895   1.82506
  Beta virt. eigenvalues --    1.83360   1.83738   1.84418   1.84713   1.85130
  Beta virt. eigenvalues --    1.86686   1.86971   1.87249   1.88103   1.88887
  Beta virt. eigenvalues --    1.89625   1.90035   1.90401   1.90857   1.91853
  Beta virt. eigenvalues --    1.92071   1.92451   1.92888   1.94140   1.95262
  Beta virt. eigenvalues --    1.95459   1.96369   1.96619   1.97350   1.97485
  Beta virt. eigenvalues --    1.98812   1.99194   1.99921   2.00281   2.00529
  Beta virt. eigenvalues --    2.01618   2.02195   2.02733   2.03326   2.03921
  Beta virt. eigenvalues --    2.04476   2.05180   2.06486   2.07118   2.07387
  Beta virt. eigenvalues --    2.08784   2.10271   2.10687   2.11374   2.12068
  Beta virt. eigenvalues --    2.12449   2.13790   2.15109   2.15377   2.16740
  Beta virt. eigenvalues --    2.17332   2.18503   2.18781   2.19821   2.21778
  Beta virt. eigenvalues --    2.22158   2.24567   2.25647   2.25837   2.26495
  Beta virt. eigenvalues --    2.27710   2.29695   2.30536   2.30765   2.33639
  Beta virt. eigenvalues --    2.34126   2.34360   2.35884   2.36496   2.38067
  Beta virt. eigenvalues --    2.39070   2.39964   2.41202   2.42272   2.43767
  Beta virt. eigenvalues --    2.45364   2.47523   2.47849   2.49277   2.50017
  Beta virt. eigenvalues --    2.53458   2.54961   2.57494   2.58058   2.59178
  Beta virt. eigenvalues --    2.60087   2.61405   2.64281   2.64830   2.66691
  Beta virt. eigenvalues --    2.67272   2.69258   2.69828   2.71361   2.72771
  Beta virt. eigenvalues --    2.73119   2.75323   2.77854   2.79387   2.80939
  Beta virt. eigenvalues --    2.82005   2.82456   2.86071   2.87070   2.89005
  Beta virt. eigenvalues --    2.89805   2.90334   2.92414   2.93170   2.93977
  Beta virt. eigenvalues --    2.95298   2.96000   2.96854   2.97557   2.97882
  Beta virt. eigenvalues --    3.00923   3.01417   3.01962   3.03136   3.04082
  Beta virt. eigenvalues --    3.04843   3.06637   3.11229   3.13499   3.14428
  Beta virt. eigenvalues --    3.16749   3.18890   3.20943   3.24963   3.26089
  Beta virt. eigenvalues --    3.27545   3.28956   3.32177   3.34157   3.39952
  Beta virt. eigenvalues --    3.43688   3.45005   3.49070   3.53843   3.59137
  Beta virt. eigenvalues --    3.63292   4.03013   4.09368   4.10657   4.15848
  Beta virt. eigenvalues --    4.20683   4.22706   4.25874   4.32505   4.38597
  Beta virt. eigenvalues --    4.43838   4.44978   4.46361   4.55018   4.59286
  Beta virt. eigenvalues --    4.64522   4.69474   4.71068   4.74754   4.81526
  Beta virt. eigenvalues --    4.85777   5.00180   5.07014   5.22671   5.30001
  Beta virt. eigenvalues --    5.41101   5.65249   6.20489   6.61793
          Condensed to atoms (all electrons):
               1          2          3          4          5          6
     1  C    5.092666   0.735416  -0.118008   0.001332  -0.000709  -0.000623
     2  C    0.735416   4.574170   0.320899  -0.056467  -0.004586  -0.002117
     3  C   -0.118008   0.320899   5.036081   0.250235  -0.018221   0.005640
     4  N    0.001332  -0.056467   0.250235   7.368068   0.225049  -0.090417
     5  C   -0.000709  -0.004586  -0.018221   0.225049   4.145640   0.596828
     6  O   -0.000623  -0.002117   0.005640  -0.090417   0.596828   8.060372
     7  N   -0.000011  -0.000363   0.004094  -0.096425   0.270316  -0.090544
     8  C    0.000001   0.000010  -0.000082   0.003000  -0.025555   0.000643
     9  C   -0.000001  -0.000004   0.000013  -0.000242  -0.002064  -0.002928
[...]
 Octapole moment (field-independent basis, Debye-Ang**2):
  XXX=           -200.2870  YYY=           -313.1264  ZZZ=           -266.5267  XYY=            -48.9308
  XXY=            -24.8531  XXZ=            -84.6459  XZZ=            -50.4587  YZZ=            -72.9205
  YYZ=           -166.2278  XYZ=             50.5045
 Hexadecapole moment (field-independent basis, Debye-Ang**3):
 XXXX=          -4427.2410 YYYY=          -2181.0297 ZZZZ=          -2692.3914 XXXY=           -582.3126
 XXXZ=           -943.2897 YYYX=           -517.6802 YYYZ=           -281.2225 ZZZX=           -986.1370
 ZZZY=           -459.0986 XXYY=          -1161.8413 XXZZ=          -1187.5053 YYZZ=           -731.7377
 XXYZ=           -219.6931 YYXZ=           -425.6889 ZZXY=           -275.6783
 N-N= 3.272019292583D+03 E-N=-1.081830163042D+04  KE= 1.810944174410D+03
                          Isotropic Fermi Contact Couplings
        Atom                 a.u.       MegaHertz       Gauss      10(-4) cm-1
     1  C(13)              0.02633      29.59894      10.56164       9.87314
     2  C(13)              0.00766       8.60580       3.07076       2.87059
     3  C(13)             -0.01202     -13.51067      -4.82094      -4.50668
     4  N(14)             -0.00316      -1.02039      -0.36410      -0.34037
     5  C(13)             -0.00054      -0.60665      -0.21647      -0.20236
     6  O(17)              0.00248      -1.50192      -0.53592      -0.50099
     7  N(14)              0.00089       0.28912       0.10316       0.09644
     8  C(13)             -0.00023      -0.25877      -0.09233      -0.08632
     9  C(13)              0.00026       0.28910       0.10316       0.09643
    10  C(13)             -0.00032      -0.35566      -0.12691      -0.11864
    11  O(17)             -0.00011       0.06372       0.02274       0.02125
    12  N(14)              0.00016       0.05253       0.01874       0.01752
    13  C(13)             -0.00009      -0.09788      -0.03493      -0.03265
    14  F(19)             -0.00002      -0.07614      -0.02717      -0.02540
    15  F(19)              0.00003       0.10703       0.03819       0.03570
    16  C(13)              0.00005       0.05200       0.01856       0.01735
    17  F(19)              0.00000      -0.00781      -0.00279      -0.00261
    18  O(17)              0.00017      -0.10130      -0.03614      -0.03379
    19  C(13)              0.00001       0.01303       0.00465       0.00435
    20  F(19)              0.00000      -0.00890      -0.00317      -0.00297
    21  F(19)              0.00000       0.00426       0.00152       0.00142
    22  F(19)              0.00000       0.01325       0.00473       0.00442
    23  C(13)              0.00003       0.02947       0.01052       0.00983
    24  F(19)              0.00000       0.00171       0.00061       0.00057
    25  F(19)              0.00000       0.01628       0.00581       0.00543
    26  F(19)              0.00000      -0.00523      -0.00187      -0.00174
    27  C(13)             -0.00045      -0.50283      -0.17942      -0.16773
    28  O(17)              0.00214      -1.29467      -0.46197      -0.43186
    29  H(1)              -0.01042     -46.57766     -16.62007     -15.53663
    30  H(1)               0.02220      99.21483      35.40232      33.09450
    31  H(1)               0.02023      90.41071      32.26079      30.15777
    32  H(1)               0.00023       1.04985       0.37461       0.35019
    33  H(1)               0.00000       0.00895       0.00319       0.00299
    34  H(1)              -0.00001      -0.06640      -0.02369      -0.02215
    35  H(1)               0.00004       0.17840       0.06366       0.05951
    36  H(1)              -0.00001      -0.04631      -0.01653      -0.01545
 --------------------------------------------------------
       Center         ----  Spin Dipole Couplings  ----
                      3XX-RR        3YY-RR        3ZZ-RR
 --------------------------------------------------------
     1   Atom        0.169463     -0.348540      0.179077
     2   Atom        0.161825     -0.296791      0.134966
     3   Atom        0.023468     -0.040705      0.017237
     4   Atom       -0.003154      0.001520      0.001634
     5   Atom       -0.000802      0.003257     -0.002455
     6   Atom       -0.032423      0.030199      0.002224
     7   Atom        0.001049     -0.008199      0.007150
     8   Atom        0.000009      0.000805     -0.000813
     9   Atom       -0.000878      0.000323      0.000556
    10   Atom       -0.000834      0.001446     -0.000612
    11   Atom        0.000298      0.001907     -0.002204
    12   Atom        0.002753     -0.001680     -0.001073
    13   Atom       -0.000732      0.000761     -0.000028
    14   Atom       -0.000429      0.000509     -0.000080
    15   Atom       -0.000804     -0.000050      0.000854
    16   Atom       -0.000438      0.000770     -0.000332
    17   Atom       -0.000505      0.000912     -0.000406
    18   Atom       -0.000988      0.001624     -0.000636
    19   Atom        0.000060      0.000482     -0.000541
    20   Atom        0.000115      0.000071     -0.000186
    21   Atom       -0.000026      0.000524     -0.000498
    22   Atom        0.000673      0.000353     -0.001027
    23   Atom       -0.000289      0.000294     -0.000005
    24   Atom       -0.000250      0.000074      0.000175
    25   Atom       -0.000107      0.000227     -0.000120
    26   Atom       -0.000242      0.000240      0.000002
    27   Atom       -0.001913      0.003020     -0.001106
    28   Atom        0.008280      0.012044     -0.020324
    29   Atom        0.019817     -0.040440      0.020623
    30   Atom        0.013210     -0.004803     -0.008407
    31   Atom       -0.008380     -0.003909      0.012289
    32   Atom        0.000441      0.000449     -0.000890
    33   Atom       -0.000166      0.000749     -0.000583
    34   Atom       -0.000496      0.001125     -0.000629
    35   Atom       -0.000152      0.000498     -0.000346
    36   Atom       -0.000547      0.001168     -0.000621
 --------------------------------------------------------
                        XY            XZ            YZ
 --------------------------------------------------------
     1   Atom       -0.029345      0.481785     -0.020392
     2   Atom       -0.032639      0.344879     -0.010881
     3   Atom       -0.004296      0.050698      0.003046
     4   Atom       -0.001955     -0.000665      0.001637
     5   Atom       -0.003431      0.001727      0.001746
     6   Atom        0.006928     -0.006143     -0.050916
     7   Atom       -0.002183     -0.014076      0.001806
     8   Atom       -0.000544     -0.000639     -0.000633
     9   Atom       -0.000690     -0.000456     -0.000882
    10   Atom       -0.000592      0.000485      0.001017
    11   Atom       -0.000056      0.002252      0.000051
    12   Atom       -0.000794     -0.003755      0.001528
    13   Atom        0.000096      0.000139      0.001191
    14   Atom       -0.000217     -0.000078      0.000555
    15   Atom        0.000052     -0.000231      0.001114
    16   Atom        0.000556      0.000184      0.000817
    17   Atom        0.000284      0.000103      0.000473
    18   Atom        0.001488      0.000392      0.000753
    19   Atom        0.001068      0.000450      0.000640
    20   Atom        0.000643      0.000469      0.000487
    21   Atom        0.000772      0.000114      0.000258
    22   Atom        0.001733      0.000561      0.000550
    23   Atom        0.000287      0.000217      0.000527
    24   Atom        0.000262      0.000269      0.000522
    25   Atom        0.000366      0.000250      0.000381
    26   Atom        0.000120      0.000081      0.000366
    27   Atom       -0.002147      0.002078      0.004015
    28   Atom        0.044734     -0.020925     -0.019404
    29   Atom       -0.011311     -0.031920      0.009821
    30   Atom        0.010347     -0.003870      0.001756
    31   Atom       -0.001588     -0.004219     -0.010181
    32   Atom       -0.001118      0.000238      0.000015
    33   Atom       -0.000746     -0.000063      0.000112
    34   Atom       -0.000417      0.000056     -0.000421
    35   Atom       -0.000644      0.000234     -0.000442
    36   Atom       -0.001236      0.000400     -0.001010
 --------------------------------------------------------


 ---------------------------------------------------------------------------------
              Anisotropic Spin Dipole Couplings in Principal Axis System
 ---------------------------------------------------------------------------------

       Atom             a.u.   MegaHertz   Gauss  10(-4) cm-1        Axes

              Baa    -0.3507   -47.067   -16.795   -15.700  0.1300  0.9883 -0.0802
     1 C(13)  Bbb    -0.3066   -41.138   -14.679   -13.722 -0.6989  0.1487  0.6996
              Bcc     0.6573    88.204    31.473    29.422  0.7033 -0.0349  0.7100
 
              Baa    -0.3001   -40.273   -14.371   -13.434  0.1260  0.9892 -0.0751
     2 C(13)  Bbb    -0.1946   -26.118    -9.320    -8.712 -0.6816  0.1413  0.7179
              Bcc     0.4948    66.391    23.690    22.146  0.7208 -0.0392  0.6921
 
              Baa    -0.0429    -5.751    -2.052    -1.918  0.2691  0.9234 -0.2738
     3 C(13)  Bbb    -0.0283    -3.797    -1.355    -1.267 -0.6297  0.3838  0.6754
              Bcc     0.0712     9.548     3.407     3.185  0.7288 -0.0093  0.6847
 
              Baa    -0.0039    -0.149    -0.053    -0.050  0.9412  0.3377  0.0132
     4 N(14)  Bbb     0.0001     0.005     0.002     0.002  0.2086 -0.6113  0.7635
              Bcc     0.0037     0.144     0.051     0.048 -0.2659  0.7158  0.6457
 
              Baa    -0.0050    -0.671    -0.239    -0.224 -0.6082 -0.3981  0.6867
     5 C(13)  Bbb    -0.0003    -0.037    -0.013    -0.013  0.6403  0.2652  0.7209
              Bcc     0.0053     0.708     0.253     0.236 -0.4691  0.8782  0.0936
 
              Baa    -0.0367     2.657     0.948     0.886  0.1924  0.5815  0.7905
     6 O(17)  Bbb    -0.0331     2.397     0.855     0.799  0.9772 -0.1873 -0.1000
              Bcc     0.0698    -5.054    -1.803    -1.686  0.0899  0.7917 -0.6043
 
              Baa    -0.0105    -0.404    -0.144    -0.135  0.7651  0.2725  0.5835
     7 N(14)  Bbb    -0.0083    -0.321    -0.115    -0.107 -0.1509  0.9567 -0.2489
              Bcc     0.0188     0.725     0.259     0.242 -0.6260  0.1024  0.7731
 
              Baa    -0.0015    -0.196    -0.070    -0.065  0.4787  0.3412  0.8089
     8 C(13)  Bbb     0.0003     0.044     0.016     0.015  0.8102  0.1832 -0.5568
              Bcc     0.0011     0.152     0.054     0.051 -0.3382  0.9219 -0.1888
 
              Baa    -0.0015    -0.203    -0.073    -0.068  0.7916  0.4795  0.3789
     9 C(13)  Bbb     0.0002     0.024     0.009     0.008  0.6081 -0.5563 -0.5664
              Bcc     0.0013     0.179     0.064     0.060  0.0608 -0.6787  0.7319
 
              Baa    -0.0016    -0.219    -0.078    -0.073 -0.6631 -0.3470  0.6633
    10 C(13)  Bbb    -0.0003    -0.038    -0.014    -0.013  0.7356 -0.1381  0.6632
              Bcc     0.0019     0.257     0.092     0.086 -0.1386  0.9276  0.3468
 
              Baa    -0.0035     0.255     0.091     0.085 -0.5072 -0.0133  0.8618
    11 O(17)  Bbb     0.0016    -0.117    -0.042    -0.039  0.8586  0.0795  0.5065
              Bcc     0.0019    -0.138    -0.049    -0.046 -0.0752  0.9967 -0.0289
 
              Baa    -0.0038    -0.146    -0.052    -0.049  0.4100 -0.4278  0.8055
    12 N(14)  Bbb    -0.0016    -0.061    -0.022    -0.020  0.3934  0.8798  0.2670
              Bcc     0.0054     0.207     0.074     0.069  0.8229 -0.2074 -0.5290
 
              Baa    -0.0009    -0.122    -0.043    -0.041 -0.3266 -0.5366  0.7781
    13 C(13)  Bbb    -0.0007    -0.097    -0.035    -0.032  0.9428 -0.2435  0.2278
              Bcc     0.0016     0.219     0.078     0.073  0.0672  0.8080  0.5854
 
              Baa    -0.0005    -0.247    -0.088    -0.083  0.8598  0.3772 -0.3441
    14 F(19)  Bbb    -0.0004    -0.195    -0.070    -0.065  0.4813 -0.3736  0.7929
              Bcc     0.0009     0.443     0.158     0.148 -0.1705  0.8474  0.5028
 
              Baa    -0.0010    -0.492    -0.176    -0.164  0.7201 -0.5490  0.4243
    15 F(19)  Bbb    -0.0006    -0.319    -0.114    -0.106  0.6906  0.6264 -0.3615
              Bcc     0.0016     0.811     0.289     0.271 -0.0673  0.5534  0.8302
 
              Baa    -0.0008    -0.109    -0.039    -0.036  0.4222 -0.5285  0.7365
    16 C(13)  Bbb    -0.0006    -0.077    -0.027    -0.026  0.8547 -0.0387 -0.5178
              Bcc     0.0014     0.186     0.066     0.062  0.3021  0.8480  0.4354
 
              Baa    -0.0006    -0.287    -0.102    -0.096  0.7411  0.0708 -0.6676
    17 F(19)  Bbb    -0.0005    -0.276    -0.098    -0.092  0.6460 -0.3461  0.6804
              Bcc     0.0011     0.563     0.201     0.188  0.1830  0.9355  0.3022
 
              Baa    -0.0017     0.120     0.043     0.040  0.9143 -0.4013 -0.0545
    18 O(17)  Bbb    -0.0009     0.062     0.022     0.021 -0.0561 -0.2587  0.9643
              Bcc     0.0025    -0.183    -0.065    -0.061  0.4011  0.8786  0.2591
 
              Baa    -0.0009    -0.117    -0.042    -0.039  0.3906 -0.6261  0.6749
    19 C(13)  Bbb    -0.0008    -0.103    -0.037    -0.034  0.7054 -0.2675 -0.6564
              Bcc     0.0016     0.220     0.078     0.073  0.5915  0.7324  0.3371
 
              Baa    -0.0006    -0.285    -0.102    -0.095 -0.3154  0.7549 -0.5750
    20 F(19)  Bbb    -0.0005    -0.264    -0.094    -0.088  0.7087 -0.2155 -0.6718
              Bcc     0.0011     0.549     0.196     0.183  0.6311  0.6194  0.4670
 
              Baa    -0.0006    -0.308    -0.110    -0.103  0.5817 -0.5335  0.6140
    21 F(19)  Bbb    -0.0005    -0.252    -0.090    -0.084 -0.5867  0.2477  0.7710
              Bcc     0.0011     0.560     0.200     0.187  0.5634  0.8087  0.1690
 
              Baa    -0.0012    -0.626    -0.223    -0.209 -0.4657  0.6936 -0.5496
    22 F(19)  Bbb    -0.0012    -0.596    -0.212    -0.199 -0.5153  0.2923  0.8056
              Bcc     0.0024     1.221     0.436     0.407  0.7194  0.6584  0.2213
 
              Baa    -0.0004    -0.055    -0.019    -0.018  0.9497 -0.2270 -0.2159
    23 C(13)  Bbb    -0.0004    -0.054    -0.019    -0.018  0.0337 -0.6110  0.7909
              Bcc     0.0008     0.109     0.039     0.036  0.3115  0.7583  0.5726
 
              Baa    -0.0004    -0.204    -0.073    -0.068 -0.4813  0.7514 -0.4513
    24 F(19)  Bbb    -0.0004    -0.190    -0.068    -0.063  0.8076  0.1800 -0.5616
              Bcc     0.0008     0.394     0.141     0.131  0.3408  0.6348  0.6935
 
              Baa    -0.0004    -0.186    -0.066    -0.062 -0.3742 -0.3246  0.8687
    25 F(19)  Bbb    -0.0003    -0.172    -0.061    -0.057  0.7957 -0.5935  0.1210
              Bcc     0.0007     0.357     0.128     0.119  0.4763  0.7364  0.4804
 
              Baa    -0.0003    -0.137    -0.049    -0.046  0.8418 -0.4300  0.3264
    26 F(19)  Bbb    -0.0003    -0.131    -0.047    -0.044 -0.5079 -0.4258  0.7488
              Bcc     0.0005     0.268     0.096     0.089  0.1830  0.7961  0.5768
 
              Baa    -0.0058    -0.773    -0.276    -0.258 -0.6054 -0.4487  0.6574
    27 C(13)  Bbb     0.0002     0.027     0.010     0.009  0.7877 -0.2199  0.5754
              Bcc     0.0056     0.746     0.266     0.249 -0.1136  0.8662  0.4866
 
              Baa    -0.0351     2.540     0.906     0.847  0.7513 -0.5985  0.2781
    28 O(17)  Bbb    -0.0294     2.128     0.759     0.710  0.0013  0.4228  0.9062
              Bcc     0.0645    -4.668    -1.666    -1.557  0.6599  0.6805 -0.3184
 
              Baa    -0.0428   -22.852    -8.154    -7.623  0.1350  0.9872 -0.0849
    29 H(1)   Bbb    -0.0117    -6.222    -2.220    -2.075  0.7052 -0.0356  0.7081
              Bcc     0.0545    29.074    10.375     9.698 -0.6960  0.1555  0.7010
 
              Baa    -0.0123    -6.573    -2.346    -2.193 -0.3664  0.6581 -0.6578
    30 H(1)   Bbb    -0.0059    -3.147    -1.123    -1.050 -0.1941  0.6374  0.7457
              Bcc     0.0182     9.721     3.469     3.243  0.9100  0.4009 -0.1058
 
              Baa    -0.0120    -6.418    -2.290    -2.141  0.6993  0.6081  0.3759
    31 H(1)   Bbb    -0.0055    -2.961    -1.057    -0.988  0.7046 -0.6751 -0.2187
              Bcc     0.0176     9.379     3.347     3.128 -0.1208 -0.4177  0.9005
 
              Baa    -0.0010    -0.533    -0.190    -0.178 -0.3789 -0.3019  0.8748
    32 H(1)   Bbb    -0.0006    -0.307    -0.109    -0.102  0.5958  0.6437  0.4802
              Bcc     0.0016     0.839     0.300     0.280  0.7081 -0.7032  0.0641
 
              Baa    -0.0006    -0.316    -0.113    -0.105  0.1111 -0.0209  0.9936
    33 H(1)   Bbb    -0.0006    -0.311    -0.111    -0.104  0.8662  0.4922 -0.0865
              Bcc     0.0012     0.628     0.224     0.209 -0.4872  0.8702  0.0728
 
              Baa    -0.0007    -0.392    -0.140    -0.131  0.2469  0.2660  0.9318
    34 H(1)   Bbb    -0.0006    -0.311    -0.111    -0.104  0.9426  0.1574 -0.2947
              Bcc     0.0013     0.703     0.251     0.235 -0.2250  0.9510 -0.2118
 
              Baa    -0.0006    -0.303    -0.108    -0.101  0.6177  0.5888  0.5213
    35 H(1)   Bbb    -0.0005    -0.268    -0.096    -0.089 -0.6163 -0.0494  0.7860
              Bcc     0.0011     0.571     0.204     0.191 -0.4885  0.8068 -0.3324
 
              Baa    -0.0012    -0.665    -0.237    -0.222  0.7259  0.5463  0.4179
    36 H(1)   Bbb    -0.0010    -0.522    -0.186    -0.174 -0.5424  0.0811  0.8362
              Bcc     0.0022     1.187     0.424     0.396 -0.4229  0.8337 -0.3551
 

 ---------------------------------------------------------------------------------

 No NMR shielding tensors so no spin-rotation constants.
 Leave Link  601 at Sun Mar  3 17:37:41 2024, MaxMem=  5368709120 cpu:         5.2
 (Enter /home/k0335/k033513/app/g09/l9999.exe)
 1\1\GINC-C24U18N2\SP\UCAM-B3LYP\6-31G(d,p)\C12H8F9N3O4(1+,2)\K033513\0
 3-Mar-2024\0\\#p CAM-B3LYP/6-31G(d,p) SCRF=(PCM,Solvent=Generic,Read) 
 NoSymm out=wfn\\Title A1528681612_p1\\1,2\C,0,0.824553,-3.6552,-2.1382
 56\C,0,-0.008598,-3.470234,-1.293009\C,0,-1.02708,-3.237176,-0.25438\N
 ,0,-1.20976,-1.810492,-0.027771\C,0,-2.125276,-1.143248,-0.812039\O,0,
 -2.849825,-1.728154,-1.618239\N,0,-2.162201,0.227761,-0.656891\C,0,-3.
 017955,1.000191,-1.556532\C,0,-2.319843,1.316801,-2.872298\C,0,-1.3151
 53,0.912566,0.18978\O,0,-1.185417,2.133765,0.118295\N,0,-0.612625,0.15
 4463,1.090575\C,0,0.275697,0.857892,2.004143\F,0,-0.392248,1.932455,2.
 516438\F,0,0.487663,0.075033,3.102764\C,0,1.63467,1.304326,1.402501\F,
 0,1.413948,2.24016,0.433145\O,0,2.249882,0.20226,0.725874\C,0,3.581777
 ,0.446235,0.361334\F,0,4.369084,0.324865,1.441892\F,0,3.720691,1.66652
 2,-0.179087\F,0,3.951169,-0.473976,-0.548881\C,0,2.406374,1.936302,2.5
 69537\F,0,2.748389,1.021447,3.504409\F,0,3.561274,2.508181,2.148785\F,
 0,1.712306,2.91215,3.194572\C,0,-0.393289,-1.185676,0.890038\O,0,0.496
 291,-1.7992,1.4797\H,0,1.565213,-3.820641,-2.886921\H,0,-1.976659,-3.6
 93433,-0.555828\H,0,-0.724556,-3.725123,0.679226\H,0,-3.937438,0.43861
 8,-1.757248\H,0,-3.313627,1.934556,-1.065687\H,0,-1.407957,1.899399,-2
 .70619\H,0,-2.981881,1.896198,-3.523061\H,0,-2.037593,0.400409,-3.4006
 89\\Version=ES64L-G09RevD.01\HF=-1824.8842332\S2=0.752121\S2-1=0.\S2A=
 0.750004\RMSD=6.569e-09\Dipole=-1.7799676,-6.7374951,-4.3060926\Quadru
 pole=-11.4592779,20.1321346,-8.6728566,-4.8610016,-7.1435222,15.805790
 5\PG=C01 [X(C12H8F9N3O4)]\\@

 Writing a WFN file to "A1528681612/A1528681612_p1.wfn"


 THE MORE POWERFUL THE METHOD, THE MORE CATASTROPHIC THE ERRORS.
     -- M.D. KAMEN
 Job cpu time:       0 days  0 hours 35 minutes 34.9 seconds.
 File lengths (MBytes):  RWF=    342 Int=      0 D2E=      0 Chk=     12 Scr=      1
 Normal termination of Gaussian 09 at Sun Mar  3 17:37:42 2024.
