 Entering Gaussian System, Link 0=g09
 Initial command:
 /home/k0335/k033513/app/g09/l1.exe "/home/k0335/k033513/app/g09/scratch/Gau-351151.inp" -scrdir="/home/k0335/k033513/app/g09/scratch/"
 Default is to use a total of  36 processors:
                               36 via shared-memory
                                1 via Linda
 Entering Link 1 = /home/k0335/k033513/app/g09/l1.exe PID=    351152.
  
 Copyright (c) 1988,1990,1992,1993,1995,1998,2003,2009,2013,
            Gaussian, Inc.  All Rights Reserved.
  
 This is part of the Gaussian(R) 09 program.  It is based on
 the Gaussian(R) 03 system (copyright 2003, Gaussian, Inc.),
 the Gaussian(R) 98 system (copyright 1998, Gaussian, Inc.),
 the Gaussian(R) 94 system (copyright 1995, Gaussian, Inc.),
 the Gaussian 92(TM) system (copyright 1992, Gaussian, Inc.),
 the Gaussian 90(TM) system (copyright 1990, Gaussian, Inc.),
 the Gaussian 88(TM) system (copyright 1988, Gaussian, Inc.),
 the Gaussian 86(TM) system (copyright 1986, Carnegie Mellon
 University), and the Gaussian 82(TM) system (copyright 1983,
 Carnegie Mellon University). Gaussian is a federally registered
 trademark of Gaussian, Inc.
  
 This software contains proprietary and confidential information,
 including trade secrets, belonging to Gaussian, Inc.
  
 This software is provided under written license and may be
 used, copied, transmitted, or stored only in accord with that
 written license.
  
 The following legend is applicable only to US Government
 contracts under FAR:
  
                    RESTRICTED RIGHTS LEGEND
  
 Use, reproduction and disclosure by the US Government is
 subject to restrictions as set forth in subparagraphs (a)
 and (c) of the Commercial Computer Software - Restricted
 Rights clause in FAR 52.227-19.
  
 Gaussian, Inc.
 340 Quinnipiac St., Bldg. 40, Wallingford CT 06492
  
  
 ---------------------------------------------------------------
 Warning -- This program may not be used in any manner that
 competes with the business of Gaussian, Inc. or will provide
 assistance to any competitor of Gaussian, Inc.  The licensee
 of this program is prohibited from giving any competitor of
 Gaussian, Inc. access to this program.  By using this program,
 the user acknowledges that Gaussian, Inc. is engaged in the
 business of creating and licensing software in the field of
 computational chemistry and represents and warrants to the
 licensee that it is not a competitor of Gaussian, Inc. and that
 it will not use this program in any manner prohibited above.
 ---------------------------------------------------------------
  

 Cite this work as:
 Gaussian 09, Revision D.01,
 M. J. Frisch, G. W. Trucks, H. B. Schlegel, G. E. Scuseria, 
 M. A. Robb, J. R. Cheeseman, G. Scalmani, V. Barone, B. Mennucci, 
 G. A. Petersson, H. Nakatsuji, M. Caricato, X. Li, H. P. Hratchian, 
 A. F. Izmaylov, J. Bloino, G. Zheng, J. L. Sonnenberg, M. Hada, 
 M. Ehara, K. Toyota, R. Fukuda, J. Hasegawa, M. Ishida, T. Nakajima, 
 Y. Honda, O. Kitao, H. Nakai, T. Vreven, J. A. Montgomery, Jr., 
 J. E. Peralta, F. Ogliaro, M. Bearpark, J. J. Heyd, E. Brothers, 
 K. N. Kudin, V. N. Staroverov, T. Keith, R. Kobayashi, J. Normand, 
 K. Raghavachari, A. Rendell, J. C. Burant, S. S. Iyengar, J. Tomasi, 
 M. Cossi, N. Rega, J. M. Millam, M. Klene, J. E. Knox, J. B. Cross, 
 V. Bakken, C. Adamo, J. Jaramillo, R. Gomperts, R. E. Stratmann, 
 O. Yazyev, A. J. Austin, R. Cammi, C. Pomelli, J. W. Ochterski, 
 R. L. Martin, K. Morokuma, V. G. Zakrzewski, G. A. Voth, 
 P. Salvador, J. J. Dannenberg, S. Dapprich, A. D. Daniels, 
 O. Farkas, J. B. Foresman, J. V. Ortiz, J. Cioslowski, 
 and D. J. Fox, Gaussian, Inc., Wallingford CT, 2013.
 
 ******************************************
 Gaussian 09:  ES64L-G09RevD.01 24-Apr-2013
                 3-Mar-2024 
 ******************************************
 %nprocshared=24
 Will use up to   24 processors via shared memory.
 %mem=40GB
 %rwf=A892693592/A892693592_0.rwf
 %nosave
 %chk=A892693592/A892693592_0.chk
 ----------------------------------------------------------------------
 #p CAM-B3LYP/6-31G(d,p) SCRF=(PCM,Solvent=Generic,Read) NoSymm out=wfn
 ----------------------------------------------------------------------
 1/38=1,40=2/1;
 2/12=2,15=1,17=6,18=5,40=1/2;
 3/5=1,6=6,7=101,11=2,16=1,25=1,30=1,70=2203,72=-2,74=-40/1,2,3;
 4//1;
 5/5=2,38=5/2;
 6/7=2,8=2,9=2,10=2,28=1/1;
 99/5=1,6=100,9=1/99;
 Leave Link    1 at Sun Mar  3 18:02:38 2024, MaxMem=  5368709120 cpu:         0.8
 (Enter /home/k0335/k033513/app/g09/l101.exe)
 ------------------
 Title A892693592_0
 ------------------
 Symbolic Z-matrix:
 Charge =  0 Multiplicity = 1
 C                    -0.60724   5.60147  -0.05819 
 C                    -1.69848   4.63041   0.36526 
 C                    -1.21254   3.18554   0.49482 
 C                    -0.79836   2.56602  -0.84379 
 N                    -0.38142   1.16774  -0.72396 
 C                    -1.39727   0.19751  -0.49038 
 N                    -0.9353   -1.11533  -0.79064 
 C                    -1.94575  -2.15812  -0.96991 
 C                    -2.63947  -2.55912   0.3352 
 C                    -3.64501  -3.68619   0.1025 
 C                    -4.34226  -4.08598   1.39302 
 C                     0.32364  -1.47177  -0.34486 
 O                     0.57008  -2.64843  -0.08461 
 N                     1.2513   -0.4451   -0.23641 
 C                     2.56848  -0.8372    0.26039 
 F                     2.44853  -1.01435   1.614 
 F                     2.8569   -2.08028  -0.24004 
 C                     3.87658  -0.01556   0.01619 
 F                     3.78748   1.2234    0.58404 
 O                     5.06543  -0.50309   0.67512 
 C                     5.34291  -1.87144   0.56615 
 F                     4.51807  -2.57412   1.35595 
 F                     6.60734  -2.07694   0.98502 
 F                     5.25034  -2.28379  -0.70313 
 C                     4.05571   0.14116  -1.49908 
 F                     4.03651  -1.03349  -2.16531 
 F                     5.2415    0.73319  -1.79113 
 F                     3.09282   0.89898  -2.07094 
 C                     0.89683   0.88093  -0.29874 
 O                     1.66963   1.79215  -0.02418 
 H                    -0.98855   6.62746  -0.03529 
 H                     0.25293   5.54482   0.61631 
 H                    -0.26298   5.39996  -1.07664 
 H                    -2.09168   4.95237   1.33699 
 H                    -2.53079   4.68258  -0.34616 
 H                    -2.02434   2.59246   0.93309 
 H                    -0.38027   3.13904   1.20732 
 H                    -1.62485   2.61197  -1.56251 
 H                     0.03447   3.12965  -1.2786 
 H                    -2.26029   0.42506  -1.12503 
 H                    -1.6909    0.2383    0.56471 
 H                    -2.67902  -1.79479  -1.69959 
 H                    -1.46212  -3.03601  -1.41542 
 H                    -3.15611  -1.69166   0.76311 
 H                    -1.89467  -2.8766    1.07472 
 H                    -3.13366  -4.56112  -0.31546 
 H                    -4.39699  -3.36896  -0.62933 
 H                    -4.89064  -3.24063   1.82082 
 H                    -3.61998  -4.43881   2.13609 
 H                    -5.05655  -4.89331   1.20353 
 
 NAtoms=     50 NQM=       50 NQMF=       0 NMMI=      0 NMMIF=      0
                NMic=       0 NMicF=      0.
                    Isotopes and Nuclear Properties:
 (Nuclear quadrupole moments (NQMom) in fm**2, nuclear magnetic moments (NMagM)
  in nuclear magnetons)

  Atom         1           2           3           4           5           6           7           8           9          10
 IAtWgt=          12          12          12          12          14          12          14          12          12          12
 AtmWgt=  12.0000000  12.0000000  12.0000000  12.0000000  14.0030740  12.0000000  14.0030740  12.0000000  12.0000000  12.0000000
 NucSpn=           0           0           0           0           2           0           2           0           0           0
 AtZEff=   0.0000000   0.0000000   0.0000000   0.0000000   0.0000000   0.0000000   0.0000000   0.0000000   0.0000000   0.0000000
 NQMom=    0.0000000   0.0000000   0.0000000   0.0000000   2.0440000   0.0000000   2.0440000   0.0000000   0.0000000   0.0000000
 NMagM=    0.0000000   0.0000000   0.0000000   0.0000000   0.4037610   0.0000000   0.4037610   0.0000000   0.0000000   0.0000000
 AtZNuc=   6.0000000   6.0000000   6.0000000   6.0000000   7.0000000   6.0000000   7.0000000   6.0000000   6.0000000   6.0000000

  Atom        11          12          13          14          15          16          17          18          19          20
 IAtWgt=          12          12          16          14          12          19          19          12          19          16
 AtmWgt=  12.0000000  12.0000000  15.9949146  14.0030740  12.0000000  18.9984033  18.9984033  12.0000000  18.9984033  15.9949146
 NucSpn=           0           0           0           2           0           1           1           0           1           0
 AtZEff=   0.0000000   0.0000000   0.0000000   0.0000000   0.0000000   0.0000000   0.0000000   0.0000000   0.0000000   0.0000000
 NQMom=    0.0000000   0.0000000   0.0000000   2.0440000   0.0000000   0.0000000   0.0000000   0.0000000   0.0000000   0.0000000
 NMagM=    0.0000000   0.0000000   0.0000000   0.4037610   0.0000000   2.6288670   2.6288670   0.0000000   2.6288670   0.0000000
 AtZNuc=   6.0000000   6.0000000   8.0000000   7.0000000   6.0000000   9.0000000   9.0000000   6.0000000   9.0000000   8.0000000

  Atom        21          22          23          24          25          26          27          28          29          30
 IAtWgt=          12          19          19          19          12          19          19          19          12          16
 AtmWgt=  12.0000000  18.9984033  18.9984033  18.9984033  12.0000000  18.9984033  18.9984033  18.9984033  12.0000000  15.9949146
 NucSpn=           0           1           1           1           0           1           1           1           0           0
 AtZEff=   0.0000000   0.0000000   0.0000000   0.0000000   0.0000000   0.0000000   0.0000000   0.0000000   0.0000000   0.0000000
 NQMom=    0.0000000   0.0000000   0.0000000   0.0000000   0.0000000   0.0000000   0.0000000   0.0000000   0.0000000   0.0000000
 NMagM=    0.0000000   2.6288670   2.6288670   2.6288670   0.0000000   2.6288670   2.6288670   2.6288670   0.0000000   0.0000000
 AtZNuc=   6.0000000   9.0000000   9.0000000   9.0000000   6.0000000   9.0000000   9.0000000   9.0000000   6.0000000   8.0000000

  Atom        31          32          33          34          35          36          37          38          39          40
 IAtWgt=           1           1           1           1           1           1           1           1           1           1
 AtmWgt=   1.0078250   1.0078250   1.0078250   1.0078250   1.0078250   1.0078250   1.0078250   1.0078250   1.0078250   1.0078250
 NucSpn=           1           1           1           1           1           1           1           1           1           1
 AtZEff=   0.0000000   0.0000000   0.0000000   0.0000000   0.0000000   0.0000000   0.0000000   0.0000000   0.0000000   0.0000000
 NQMom=    0.0000000   0.0000000   0.0000000   0.0000000   0.0000000   0.0000000   0.0000000   0.0000000   0.0000000   0.0000000
 NMagM=    2.7928460   2.7928460   2.7928460   2.7928460   2.7928460   2.7928460   2.7928460   2.7928460   2.7928460   2.7928460
 AtZNuc=   1.0000000   1.0000000   1.0000000   1.0000000   1.0000000   1.0000000   1.0000000   1.0000000   1.0000000   1.0000000

  Atom        41          42          43          44          45          46          47          48          49          50
 IAtWgt=           1           1           1           1           1           1           1           1           1           1
 AtmWgt=   1.0078250   1.0078250   1.0078250   1.0078250   1.0078250   1.0078250   1.0078250   1.0078250   1.0078250   1.0078250
 NucSpn=           1           1           1           1           1           1           1           1           1           1
 AtZEff=   0.0000000   0.0000000   0.0000000   0.0000000   0.0000000   0.0000000   0.0000000   0.0000000   0.0000000   0.0000000
 NQMom=    0.0000000   0.0000000   0.0000000   0.0000000   0.0000000   0.0000000   0.0000000   0.0000000   0.0000000   0.0000000
 NMagM=    2.7928460   2.7928460   2.7928460   2.7928460   2.7928460   2.7928460   2.7928460   2.7928460   2.7928460   2.7928460
 AtZNuc=   1.0000000   1.0000000   1.0000000   1.0000000   1.0000000   1.0000000   1.0000000   1.0000000   1.0000000   1.0000000
 Leave Link  101 at Sun Mar  3 18:02:38 2024, MaxMem=  5368709120 cpu:         1.0
 (Enter /home/k0335/k033513/app/g09/l202.exe)
                          Input orientation:                          
 ---------------------------------------------------------------------
 Center     Atomic      Atomic             Coordinates (Angstroms)
 Number     Number       Type             X           Y           Z
 ---------------------------------------------------------------------
      1          6           0       -0.607243    5.601474   -0.058187
      2          6           0       -1.698483    4.630411    0.365262
      3          6           0       -1.212544    3.185539    0.494819
      4          6           0       -0.798362    2.566022   -0.843789
      5          7           0       -0.381420    1.167740   -0.723960
      6          6           0       -1.397272    0.197505   -0.490384
      7          7           0       -0.935299   -1.115331   -0.790635
      8          6           0       -1.945753   -2.158124   -0.969907
      9          6           0       -2.639468   -2.559123    0.335199
     10          6           0       -3.645011   -3.686191    0.102495
     11          6           0       -4.342264   -4.085977    1.393022
     12          6           0        0.323641   -1.471769   -0.344856
     13          8           0        0.570076   -2.648425   -0.084609
     14          7           0        1.251304   -0.445102   -0.236413
     15          6           0        2.568481   -0.837195    0.260387
     16          9           0        2.448531   -1.014353    1.614003
     17          9           0        2.856895   -2.080278   -0.240038
     18          6           0        3.876581   -0.015560    0.016185
     19          9           0        3.787484    1.223395    0.584041
     20          8           0        5.065431   -0.503092    0.675119
     21          6           0        5.342906   -1.871440    0.566150
     22          9           0        4.518069   -2.574118    1.355948
     23          9           0        6.607343   -2.076944    0.985018
     24          9           0        5.250340   -2.283789   -0.703129
     25          6           0        4.055707    0.141160   -1.499082
     26          9           0        4.036513   -1.033489   -2.165312
     27          9           0        5.241496    0.733191   -1.791132
     28          9           0        3.092817    0.898975   -2.070937
     29          6           0        0.896831    0.880928   -0.298744
     30          8           0        1.669625    1.792154   -0.024177
     31          1           0       -0.988545    6.627460   -0.035289
     32          1           0        0.252933    5.544824    0.616314
     33          1           0       -0.262977    5.399965   -1.076636
     34          1           0       -2.091678    4.952375    1.336994
     35          1           0       -2.530788    4.682581   -0.346163
     36          1           0       -2.024336    2.592461    0.933085
     37          1           0       -0.380274    3.139036    1.207319
     38          1           0       -1.624845    2.611973   -1.562509
     39          1           0        0.034472    3.129645   -1.278603
     40          1           0       -2.260292    0.425064   -1.125028
     41          1           0       -1.690902    0.238304    0.564712
     42          1           0       -2.679020   -1.794789   -1.699586
     43          1           0       -1.462115   -3.036011   -1.415417
     44          1           0       -3.156108   -1.691662    0.763106
     45          1           0       -1.894665   -2.876596    1.074716
     46          1           0       -3.133663   -4.561124   -0.315463
     47          1           0       -4.396991   -3.368955   -0.629329
     48          1           0       -4.890638   -3.240630    1.820820
     49          1           0       -3.619975   -4.438805    2.136092
     50          1           0       -5.056548   -4.893312    1.203533
 ---------------------------------------------------------------------
                    Distance matrix (angstroms):
                    1          2          3          4          5
     1  C    0.000000
     2  C    1.520880   0.000000
     3  C    2.551264   1.529894   0.000000
     4  C    3.141284   2.556115   1.532064   0.000000
     5  N    4.489125   3.861496   2.499540   1.464033   0.000000
     6  C    5.478487   4.524767   3.151682   2.468494   1.424033
     7  N    6.764582   5.910338   4.497415   3.684282   2.350243
     8  C    7.926803   6.923007   5.589074   4.863123   3.683612
     9  C    8.419028   7.250914   5.921379   5.571965   4.484429
    10  C    9.773156   8.545401   7.300102   6.934626   5.907174
    11  C   10.483468   9.166313   7.967237   7.862039   6.911689
    12  C    7.139992   6.467600   4.975484   4.220377   2.758231
    13  O    8.333523   7.637421   6.127692   5.444211   3.984624
    14  N    6.328273   5.901194   4.448236   3.692818   2.346220
    15  C    7.186318   6.936332   5.525712   4.912914   3.700084
    16  F    7.476840   7.114804   5.682881   5.422374   4.270389
    17  F    8.428679   8.133339   6.695459   5.942518   4.611994
    18  C    7.187578   7.265552   6.031195   5.409179   4.480914
    19  F    6.236478   6.461537   5.371987   4.987116   4.369637
    20  O    8.365566   8.497023   7.283644   6.790479   5.866625
    21  C    9.572801   9.586218   8.279617   7.706761   6.608245
    22  F    9.752379   9.567247   8.170380   7.715201   6.506344
    23  F   10.587570  10.693898   9.438467   8.930069   7.892489
    24  F    9.844013   9.860718   8.550877   7.754176   6.605317
    25  C    7.323545   7.532586   6.402996   5.465469   4.619824
    26  F    8.368224   8.448298   7.240794   6.170812   5.142085
    27  F    7.804552   8.246312   7.272841   6.382524   5.739762
    28  F    6.313090   6.543335   5.508867   4.407518   3.735894
    29  C    4.960208   4.608165   3.223420   2.451590   1.377315
    30  O    4.438040   4.421710   3.243112   2.713226   2.255299
    31  H    1.094789   2.157002   3.489701   4.145494   5.536372
    32  H    1.094561   2.169609   2.780038   3.479998   4.621429
    33  H    1.093784   2.175307   2.876601   2.893456   4.248545
    34  H    2.138085   1.096598   2.145657   3.481833   4.636375
    35  H    2.151121   1.096166   2.164752   2.780064   4.137224
    36  H    3.470581   2.140524   1.096734   2.158933   2.734008
    37  H    2.777881   2.161234   1.096582   2.170296   2.759683
    38  H    3.497944   2.792099   2.175217   1.096241   2.082085
    39  H    2.830398   2.820944   2.168686   1.095603   2.080785
    40  H    5.537684   4.496836   3.367774   2.607688   2.059753
    41  H    5.506897   4.396640   2.986621   2.863350   2.058949
    42  H    7.854372   6.819695   5.636456   4.825550   3.873937
    43  H    8.785159   7.874053   6.512985   5.670106   4.395172
    44  H    7.769239   6.500120   5.257044   5.125324   4.252815
    45  H    8.649774   7.543008   6.127891   5.874064   4.677799
    46  H   10.475084   9.327778   8.022346   7.518575   6.368798
    47  H    9.754844   8.500648   7.373317   6.944068   6.059321
    48  H   10.003047   8.617528   7.522121   7.587099   6.800197
    49  H   10.709744   9.438149   8.162115   8.118423   7.078240
    50  H   11.468600  10.133144   8.974769   8.829798   7.893567
                    6          7          8          9         10
     6  C    0.000000
     7  N    1.423765   0.000000
     8  C    2.465717   1.463070   0.000000
     9  C    3.134268   2.501246   1.531451   0.000000
    10  C    4.526249   3.840513   2.524384   1.528251   0.000000
    11  C    5.528871   5.020011   3.878571   2.519878   1.520346
    12  C    2.401915   1.382280   2.451922   3.228750   4.566617
    13  O    3.483451   2.261637   2.711742   3.238115   4.344988
    14  N    2.737225   2.353211   3.700491   4.464743   5.881617
    15  C    4.166708   3.668580   4.861768   5.485742   6.837338
    16  F    4.548323   4.152443   5.224417   5.468948   6.823095
    17  F    4.832071   3.951584   4.858415   5.547089   6.706047
    18  C    5.302408   5.001464   6.281921   7.002169   8.369906
    19  F    5.393379   5.446472   6.835161   7.461573   8.920645
    20  O    6.604223   6.207417   7.389313   7.981747   9.291492
    21  C    7.129291   6.467490   7.454275   8.015269   9.181010
    22  F    6.788379   6.039462   6.882125   7.229972   8.333290
    23  F    8.451260   7.808271   8.774040   9.282148  10.415339
    24  F    7.098790   6.295640   7.202133   7.962600   9.041185
    25  C    5.545776   5.195268   6.448586   7.448589   8.747269
    26  F    5.817796   5.159007   6.203330   7.290325   8.437155
    27  F    6.786173   6.524632   7.790421   8.801716  10.103800
    28  F    4.811560   4.682128   5.995441   7.113861   8.434802
    29  C    2.401396   2.753853   4.215042   4.974057   6.453518
    30  O    3.487995   3.978260   5.437836   6.134415   7.633719
    31  H    6.458985   7.779730   8.886858   9.341098  10.651159
    32  H    5.704540   6.910070   8.166133   8.609237  10.033425
    33  H    5.356856   6.556134   7.743890   8.425442   9.766613
    34  H    5.141041   6.533075   7.476783   7.597781   8.863501
    35  H    4.628344   6.029836   6.893952   7.274499   8.454533
    36  H    2.855746   4.231422   5.118165   5.222516   6.537426
    37  H    3.545291   4.732812   5.937250   6.191411   7.646101
    38  H    2.651584   3.868341   4.817467   5.600981   6.820570
    39  H    3.356877   4.381597   5.654828   6.489714   7.867760
    40  H    1.095153   2.059185   2.606887   3.343861   4.508512
    41  H    1.095952   2.059182   2.857074   2.962778   4.408384
    42  H    2.659752   2.080485   1.096414   2.173964   2.785325
    43  H    3.363854   2.087319   1.096846   2.162924   2.737120
    44  H    2.869441   2.770968   2.164689   1.096590   2.157216
    45  H    3.485260   2.738973   2.167786   1.096543   2.159715
    46  H    5.068550   4.114861   2.759318   2.162313   1.096209
    47  H    4.662323   4.133782   2.755118   2.162182   1.096211
    48  H    5.419044   5.194353   4.199086   2.781958   2.168583
    49  H    5.773574   5.178677   4.201399   2.781693   2.168541
    50  H    6.494311   5.935869   4.677835   3.470550   2.159135
                   11         12         13         14         15
    11  C    0.000000
    12  C    5.623609   0.000000
    13  O    5.327385   1.230032   0.000000
    14  N    6.870155   1.387935   2.311222   0.000000
    15  C    7.719834   2.410044   2.719044   1.461336   0.000000
    16  F    7.456447   2.926007   3.013979   2.276277   1.370419
    17  F    7.649680   2.607421   2.361459   2.291667   1.370716
    18  C    9.274340   3.856719   4.227897   2.672151   1.563920
    19  F    9.743546   4.486086   5.078366   3.144716   2.415937
    20  O   10.092432   4.946034   5.038636   3.921966   2.553113
    21  C    9.969474   5.116902   4.879252   4.406785   2.976674
    22  F    8.988470   4.658448   4.203258   4.211897   2.831616
    23  F   11.139864   6.451334   6.157864   5.730790   4.286546
    24  F    9.982975   5.006006   4.735018   4.426159   3.195836
    25  C    9.836609   4.226357   4.683176   3.130928   2.502948
    26  F    9.601215   4.158313   4.353565   3.438639   2.842123
    27  F   11.189802   5.580220   6.014126   4.441527   3.717506
    28  F    9.598395   4.033376   4.784743   2.926293   2.953690
    29  C    7.414872   2.421953   3.550909   1.374006   2.461501
    30  O    8.526646   3.545095   4.575085   2.285903   2.793277
    31  H   11.316591   8.210674   9.406050   7.421490   8.274112
    32  H   10.699133   7.082473   8.229289   6.132137   6.798427
    33  H   10.617104   6.935442   8.151974   6.096214   6.979036
    34  H    9.314509   7.066259   8.177900   6.540940   7.509679
    35  H    9.121065   6.784084   7.964133   6.372550   7.539123
    36  H    7.084198   4.864575   5.935786   4.617828   5.771398
    37  H    8.242127   4.915716   6.005576   4.194336   5.040064
    38  H    7.809101   4.685747   5.888434   4.401871   5.727451
    39  H    8.852039   4.704095   5.924406   3.917353   4.952324
    40  H    5.569980   3.298993   4.305786   3.725336   5.179741
    41  H    5.139574   2.794646   3.723821   3.124967   4.403596
    42  H    4.192869   3.309926   3.727395   4.405676   5.682847
    43  H    4.157525   2.604204   2.459893   3.932620   4.887619
    44  H    2.745269   3.658495   3.939348   4.688095   5.809799
    45  H    2.748575   2.984896   2.733321   4.186686   4.974129
    46  H    2.146020   4.636586   4.174853   6.014634   6.834742
    47  H    2.146397   5.095548   5.048528   6.372326   7.464530
    48  H    1.094686   5.916733   5.813842   7.054831   7.990614
    49  H    1.094688   5.523632   5.068876   6.731107   7.401814
    50  H    1.094485   6.561318   6.193361   7.851689   8.688077
                   16         17         18         19         20
    16  F    0.000000
    17  F    2.177252   0.000000
    18  C    2.364305   2.316996   0.000000
    19  F    2.803771   3.529781   1.365799   0.000000
    20  O    2.826846   2.864029   1.444038   2.149930   0.000000
    21  C    3.195309   2.621794   2.428345   3.463764   1.400444
    22  F    2.604313   2.355960   2.958495   3.943438   2.247728
    23  F    4.338253   3.945457   3.555981   4.359429   2.224981
    24  F    3.851065   2.446313   2.747633   4.012118   2.259345
    25  C    3.689109   2.820838   1.533845   2.362748   2.482288
    26  F    4.099424   2.488764   2.412610   3.565737   3.067253
    27  F    4.738091   4.000978   2.385375   2.827702   2.764379
    28  F    4.201751   3.504825   2.409718   2.763461   3.660303
    29  C    3.107807   3.551625   3.127584   3.041787   4.499016
    30  O    3.341678   4.056099   2.853088   2.275685   4.157964
    31  H    8.539963   9.521241   8.234186   7.238642   9.380836
    32  H    6.988479   8.102847   6.663997   5.582906   7.729223
    33  H    7.465607   8.147854   6.903485   6.050440   8.142890
    34  H    7.502804   8.742632   7.876867   7.002626   9.023547
    35  H    7.816068   8.647234   7.953503   7.263044   9.254013
    36  H    5.786130   6.858362   6.516387   5.981089   7.740400
    37  H    5.041644   6.309940   5.430570   4.629078   6.572978
    38  H    6.311328   6.622095   6.297769   5.985744   7.711706
    39  H    5.600676   6.015645   5.131334   4.603078   6.505717
    40  H    5.634468   5.765895   6.257614   6.335128   7.600541
    41  H    4.450288   5.167775   5.600196   5.566282   6.797786
    42  H    6.154732   5.732202   7.006100   7.492667   8.202696
    43  H    5.343935   4.576985   6.298753   7.049728   7.307180
    44  H    5.709181   6.108480   7.268144   7.532801   8.307475
    45  H    4.756273   4.993999   6.527886   7.024066   7.364519
    46  H    6.889362   6.484371   8.361559   9.064880   9.201849
    47  H    7.578777   7.377743   8.950639   9.462958   9.972572
    48  H    7.672189   8.100483   9.514300   9.837019  10.388939
    49  H    6.987576   7.290987   8.958652   9.451974   9.646790
    50  H    8.458192   8.521716  10.247100  10.771016  11.045710
                   21         22         23         24         25
    21  C    0.000000
    22  F    1.340855   0.000000
    23  F    1.347770   2.179412   0.000000
    24  F    1.337785   2.204611   2.175795   0.000000
    25  C    3.157946   3.967078   4.195424   2.817990   0.000000
    26  F    3.141609   3.873591   4.197921   2.274776   1.350567
    27  F    3.514422   4.622310   4.179642   3.207179   1.357162
    28  F    4.437604   5.083036   5.526920   4.081151   1.352205
    29  C    5.300109   5.271500   6.557972   5.397407   3.459272
    30  O    5.221437   5.392839   6.353696   5.467706   3.254921
    31  H   10.615098  10.813296  11.597637  10.898626   8.346212
    32  H    8.995072   9.200851   9.930046   9.380948   6.937981
    33  H    9.327272   9.610508  10.361268   9.464473   6.817956
    34  H   10.120854  10.016846  11.189646  10.508539   8.305508
    35  H   10.285065  10.258813  11.444154  10.450057   8.083047
    36  H    8.621909   8.347180   9.813864   8.909317   6.992227
    37  H    7.633528   7.527017   8.722537   8.047401   5.999149
    38  H    8.554632   8.552679   9.810441   8.483819   6.194967
    39  H    7.522861   7.718576   8.685343   7.539345   5.014976
    40  H    8.120507   7.816426   9.452369   7.995341   6.333432
    41  H    7.343397   6.862004   8.625422   7.493278   6.106734
    42  H    8.336110   7.857591   9.670742   8.006672   7.010324
    43  H    7.182698   6.607300   8.473373   6.791925   6.367713
    44  H    8.503197   7.747463   9.773570   8.553878   7.777339
    45  H    7.324712   6.426021   8.540002   7.386694   7.151099
    46  H    8.936658   8.080273  10.136548   8.696439   8.671763
    47  H    9.926596   9.167954  11.196909   9.708451   9.193774
    48  H   10.400688   9.443734  11.586902  10.494060  10.123998
    49  H    9.454592   8.385311  10.559422   9.559694   9.649179
    50  H   10.848346   9.852674  12.001085  10.801709  10.755614
                   26         27         28         29         30
    26  F    0.000000
    27  F    2.170980   0.000000
    28  F    2.152646   2.173154   0.000000
    29  C    4.123915   4.596212   2.821941   0.000000
    30  O    4.262731   4.123323   2.648107   1.225941   0.000000
    31  H    9.406293   8.754359   7.322357   6.053650   5.517805
    32  H    8.082520   7.337123   6.072081   4.796234   4.061992
    33  H    7.814100   7.251793   5.701658   4.729901   4.225982
    34  H    9.254806   9.020096   7.411008   5.308814   5.097763
    35  H    8.894504   8.837082   6.993958   5.118924   5.108984
    36  H    7.712423   7.979383   6.170681   3.602772   3.898999
    37  H    6.949289   6.810514   5.275149   2.999712   2.744587
    38  H    6.760454   7.122410   5.044720   3.309451   3.727211
    39  H    5.842454   5.754892   3.867448   2.600099   2.456866
    40  H    6.546703   7.537603   5.456658   3.295145   4.304074
    41  H    6.470995   7.338464   5.501554   2.802657   3.748917
    42  H    6.774575   8.314664   6.380311   4.680655   5.880805
    43  H    5.899775   7.699769   6.054852   4.706803   5.920686
    44  H    7.793755   9.106250   7.334321   4.916509   6.003706
    45  H    7.005262   8.495201   7.001789   4.878302   5.975697
    46  H    8.202291  10.017518   8.465425   6.772082   7.969979
    47  H    8.884685  10.539346   8.740176   6.796716   7.987934
    48  H   10.022711  11.467240   9.798860   7.414485   8.471716
    49  H    9.419133  10.986278   9.552621   7.391179   8.454081
    50  H   10.437007  12.110956  10.520689   8.428606   9.562642
                   31         32         33         34         35
    31  H    0.000000
    32  H    1.771427   0.000000
    33  H    1.765672   1.775733   0.000000
    34  H    2.430221   2.523406   3.061061   0.000000
    35  H    2.501542   3.069027   2.488212   1.760291   0.000000
    36  H    4.276895   3.742024   3.876009   2.395177   2.502313
    37  H    3.752755   2.556962   3.215899   2.496781   3.069291
    38  H    4.342973   4.107911   3.140646   3.755334   2.566641
    39  H    3.850598   3.077584   2.298613   3.831998   3.140321
    40  H    6.424530   5.963264   5.361087   5.156213   4.336617
    41  H    6.455588   5.651576   5.601405   4.793694   4.613751
    42  H    8.749964   8.235876   7.615104   7.422265   6.618916
    43  H    9.773008   8.983321   8.527508   8.472687   7.865242
    44  H    8.633861   8.000615   7.876930   6.753191   6.500191
    45  H    9.611464   8.703024   8.705871   7.835840   7.717817
    46  H   11.395808  10.698945  10.394398   9.712003   9.263395
    47  H   10.578218  10.130591   9.704850   8.855813   8.269832
    48  H   10.772682  10.251408  10.221075   8.671424   8.546460
    49  H   11.580222  10.815821  10.880830   9.548220   9.515650
    50  H   12.280534  11.725617  11.581409  10.283279  10.023909
                   36         37         38         39         40
    36  H    0.000000
    37  H    1.754106   0.000000
    38  H    2.527442   3.081996   0.000000
    39  H    3.069010   2.520300   1.761227   0.000000
    40  H    2.998185   4.042271   2.318998   3.550251   0.000000
    41  H    2.406020   3.247297   3.188062   3.838565   1.792848
    42  H    5.158249   6.170653   4.533170   5.638290   2.330922
    43  H    6.124643   6.795611   5.652242   6.346165   3.563769
    44  H    4.434356   5.589116   5.125868   6.131344   2.974570
    45  H    5.472427   6.204739   6.095256   6.733098   3.984158
    46  H    7.345969   8.318202   7.435387   8.373329   5.126426
    47  H    6.603719   7.865192   6.657861   7.892479   4.382440
    48  H    6.559627   7.837085   7.507681   8.628067   5.388326
    49  H    7.309719   8.293489   8.208146   9.071745   6.011727
    50  H    8.081104   9.294416   8.703843   9.820760   6.444096
                   41         42         43         44         45
    41  H    0.000000
    42  H    3.199514   0.000000
    43  H    3.833327   1.761318   0.000000
    44  H    2.431246   2.510598   3.069666   0.000000
    45  H    3.162946   3.079330   2.532444   1.758524   0.000000
    46  H    5.088298   3.126517   2.515937   3.065555   2.511045
    47  H    4.664865   2.564152   3.056515   2.508381   3.067217
    48  H    4.890716   4.401701   4.719096   2.554732   3.108866
    49  H    5.297727   4.752751   4.386047   3.105971   2.558068
    50  H    6.170020   4.866373   4.819587   3.749161   3.752498
                   46         47         48         49         50
    46  H    0.000000
    47  H    1.765156   0.000000
    48  H    3.065024   2.502676   0.000000
    49  H    2.502316   3.065271   1.774712   0.000000
    50  H    2.472890   2.473472   1.771984   1.772000   0.000000
 Symmetry turned off by external request.
 Stoichiometry    C15H20F9N3O3
 Framework group  C1[X(C15H20F9N3O3)]
 Deg. of freedom   144
 Full point group                 C1      NOp   1
 Rotational constants (GHZ):      0.1813872      0.1115961      0.0787906
 Leave Link  202 at Sun Mar  3 18:02:39 2024, MaxMem=  5368709120 cpu:         0.1
 (Enter /home/k0335/k033513/app/g09/l301.exe)
 Standard basis: 6-31G(d,p) (6D, 7F)
 Ernie: Thresh=  0.10000D-02 Tol=  0.10000D-05 Strict=F.
   550 basis functions,   980 primitive gaussians,   550 cartesian basis functions
   118 alpha electrons      118 beta electrons
       nuclear repulsion energy      3659.4379441917 Hartrees.
 IExCor=20419 DFT=T Ex+Corr=CAM-B3LYP ExCW=0 ScaHFX=  1.000000
 ScaDFX=  1.000000  1.000000  1.000000  0.810000 ScalE2=  1.000000  1.000000
 IRadAn=      0 IRanWt=     -1 IRanGd=            0 ICorTp=0 IEmpDi=  4
  HFx wShort=  0.000000 wLong=  0.330000 cFull=  0.190000 cShort=  0.000000 cLong=  0.460000
  DFx wShort=  0.000000 wLong=  0.330000 cFull=  0.190000 cShort=  0.000000 cLong=  0.460000
 NAtoms=   50 NActive=   50 NUniq=   50 SFac= 1.00D+00 NAtFMM=   60 NAOKFM=F Big=F
 Integral buffers will be    131072 words long.
 Raffenetti 2 integral format.
 Two-electron integral symmetry is turned off.
 Using the following non-standard input for PCM:
 eps=4.9
 --- end of non-standard input.
 ------------------------------------------------------------------------------
 Polarizable Continuum Model (PCM)
 =================================
 Model                : PCM (using non-symmetric T matrix).
 Atomic radii         : UFF (Universal Force Field).
 Polarization charges : Total charges.
 Charge compensation  : None.
 Solution method      : On-the-fly selection.
 Cavity type          : Scaled VdW (van der Waals Surface) (Alpha=1.100).
 Cavity algorithm     : GePol (No added spheres)
                        Default sphere list used, NSphG=   50.
                        Lebedev-Laikov grids with approx.  5.0 points / Ang**2.
                        Smoothing algorithm: Karplus/York (Gamma=1.0000).
                        Polarization charges: spherical gaussians, with
                                              point-specific exponents (IZeta= 3).
                        Self-potential: point-specific (ISelfS= 7).
                        Self-field    : sphere-specific E.n sum rule (ISelfD= 2).
 Solvent              : Generic,
                        Eps                           =   4.900000
                        Eps(infinity)                 =   0.000000
                        RSolv                         =   0.000000 Ang.
                        Molar volume                  =   0.000000 cm**3/mol
                        Thermal expansion coefficient =   0.000000 K**-1
                        Absolute temperature          = 298.150000 K
                        Numeral density               =   0.000000 Ang**-3
                        Hydrogen bond acidity         =   0.000000
                        Hydrogen bond basicity        =   0.000000
                        Surface tension at interface  =   0.000000 (cal/mol)*Ang**-2
                        Carbon aromaticity            =   0.000000
                        Electronegative halogenicity  =   0.000000
 ------------------------------------------------------------------------------
 GePol: Number of generator spheres                  =      50
 GePol: Total number of spheres                      =      50
 GePol: Number of exposed spheres                    =      50 (100.00%)
 GePol: Number of points                             =    3615
 GePol: Average weight of points                     =       0.13
 GePol: Minimum weight of points                     =   0.24D-11
 GePol: Maximum weight of points                     =    0.20577
 GePol: Number of points with low weight             =     220
 GePol: Fraction of low-weight points (<1% of avg)   =       6.09%
 GePol: Cavity surface area                          =    453.884 Ang**2
 GePol: Cavity volume                                =    508.078 Ang**3
 Leave Link  301 at Sun Mar  3 18:02:39 2024, MaxMem=  5368709120 cpu:         0.9
 (Enter /home/k0335/k033513/app/g09/l302.exe)
 NPDir=0 NMtPBC=     1 NCelOv=     1 NCel=       1 NClECP=     1 NCelD=      1
         NCelK=      1 NCelE2=     1 NClLst=     1 CellRange=     0.0.
 One-electron integrals computed using PRISM.
 NBasis=   550 RedAO= T EigKep=  1.36D-03  NBF=   550
 NBsUse=   550 1.00D-06 EigRej= -1.00D+00 NBFU=   550
 Precomputing XC quadrature grid using
 IXCGrd= 4 IRadAn=           0 IRanWt=          -1 IRanGd=           0 AccXCQ= 0.00D+00.
 Generated NRdTot=       0 NPtTot=           0 NUsed=           0 NTot=          32
 NSgBfM=   527   528   528   528   528 MxSgAt=    50 MxSgA2=    50.
 Leave Link  302 at Sun Mar  3 18:02:39 2024, MaxMem=  5368709120 cpu:        10.6
 (Enter /home/k0335/k033513/app/g09/l303.exe)
 DipDrv:  MaxL=1.
 Leave Link  303 at Sun Mar  3 18:02:39 2024, MaxMem=  5368709120 cpu:         0.9
 (Enter /home/k0335/k033513/app/g09/l401.exe)
 ExpMin= 1.61D-01 ExpMax= 7.00D+03 ExpMxC= 1.05D+03 IAcc=1 IRadAn=         1 AccDes= 0.00D+00
 Harris functional with IExCor=20419 and IRadAn=       1 diagonalized for initial guess.
 HarFok:  IExCor=20419 AccDes= 0.00D+00 IRadAn=         1 IDoV= 1 UseB2=F ITyADJ=14
 ICtDFT=  3500011 ScaDFX=  1.000000  1.000000  1.000000  1.000000
 FoFCou: FMM=F IPFlag=           0 FMFlag=      100000 FMFlg1=           0
         NFxFlg=           0 DoJE=T BraDBF=F KetDBF=T FulRan=T
         wScrn=  0.000000 ICntrl=     500 IOpCl=  0 I1Cent=   200000004 NGrid=           0
         NMat0=    1 NMatS0=      1 NMatT0=    0 NMatD0=    1 NMtDS0=    0 NMtDT0=    0
 Symmetry not used in FoFCou.
 Harris En= -1810.17106051702    
 JPrj=0 DoOrth=F DoCkMO=F.
 Leave Link  401 at Sun Mar  3 18:02:40 2024, MaxMem=  5368709120 cpu:        12.2
 (Enter /home/k0335/k033513/app/g09/l502.exe)
 Closed shell SCF:
 Using DIIS extrapolation, IDIIS=  1040.
 Two-electron integral symmetry not used.
 IVT=      942650 IEndB=      942650 NGot=  5368709120 MDV=  5368086161
 LenX=  5368086161 LenY=  5367783111
 Requested convergence on RMS density matrix=1.00D-08 within 128 cycles.
 Requested convergence on MAX density matrix=1.00D-06.
 Requested convergence on             energy=1.00D-06.
 No special actions if energy rises.
 Fock matrices will be formed incrementally for  20 cycles.

 Cycle   1  Pass 1  IDiag  1:
 FoFJK:  IHMeth= 1 ICntrl=       0 DoSepK=T KAlg= 0 I1Cent=   0 FoldK=F
 IRaf=         1 NMat=   1 IRICut=       1 DoRegI=T DoRafI=F ISym2E= 0.
 FoFCou: FMM=F IPFlag=           0 FMFlag=      100000 FMFlg1=           0
         NFxFlg=           0 DoJE=T BraDBF=F KetDBF=F FulRan=T
         wScrn=  0.000000 ICntrl=     500 IOpCl=  0 I1Cent=           0 NGrid=           0
         NMat0=    1 NMatS0=      1 NMatT0=    0 NMatD0=    1 NMtDS0=    0 NMtDT0=    0
 Symmetry not used in FoFCou.
 Inv3:  Mode=1 IEnd=    39204675.
 Iteration    1 A*A^-1 deviation from unit magnitude is 7.77D-15 for    442.
 Iteration    1 A*A^-1 deviation from orthogonality  is 4.90D-15 for   3609    385.
 Iteration    1 A^-1*A deviation from unit magnitude is 7.55D-15 for   1505.
 Iteration    1 A^-1*A deviation from orthogonality  is 3.86D-09 for   1775   1671.
 Iteration    2 A*A^-1 deviation from unit magnitude is 1.18D-14 for    148.
 Iteration    2 A*A^-1 deviation from orthogonality  is 9.19D-15 for   3381    754.
 Iteration    2 A^-1*A deviation from unit magnitude is 1.33D-15 for   1782.
 Iteration    2 A^-1*A deviation from orthogonality  is 7.73D-16 for   3608    432.
 E= -1870.91692064360    
 DIIS: error= 4.83D-02 at cycle   1 NSaved=   1.
 NSaved= 1 IEnMin= 1 EnMin= -1870.91692064360     IErMin= 1 ErrMin= 4.83D-02
 ErrMax= 4.83D-02  0.00D+00 EMaxC= 1.00D-01 BMatC= 1.52D+00 BMatP= 1.52D+00
 IDIUse=3 WtCom= 5.17D-01 WtEn= 4.83D-01
 Coeff-Com:  0.100D+01
 Coeff-En:   0.100D+01
 Coeff:      0.100D+01
 Gap=     0.413 Goal=   None    Shift=    0.000
 GapD=    0.413 DampG=2.000 DampE=0.500 DampFc=1.0000 IDamp=-1.
 RMSDP=2.66D-03 MaxDP=1.20D-01              OVMax= 1.16D-01

 Cycle   2  Pass 1  IDiag  1:
 RMSU=  2.66D-03    CP:  1.00D+00
 E= -1871.16486264260     Delta-E=       -0.247941998996 Rises=F Damp=F
 DIIS: error= 1.74D-02 at cycle   2 NSaved=   2.
 NSaved= 2 IEnMin= 2 EnMin= -1871.16486264260     IErMin= 2 ErrMin= 1.74D-02
 ErrMax= 1.74D-02  0.00D+00 EMaxC= 1.00D-01 BMatC= 4.99D-01 BMatP= 1.52D+00
 IDIUse=3 WtCom= 8.26D-01 WtEn= 1.74D-01
 Coeff-Com:  0.337D+00 0.663D+00
 Coeff-En:   0.325D+00 0.675D+00
 Coeff:      0.334D+00 0.666D+00
 Gap=     0.436 Goal=   None    Shift=    0.000
 RMSDP=1.41D-03 MaxDP=1.13D-01 DE=-2.48D-01 OVMax= 1.22D-01

 Cycle   3  Pass 1  IDiag  1:
 RMSU=  8.74D-04    CP:  1.00D+00  5.83D-01
 E= -1871.41860235912     Delta-E=       -0.253739716521 Rises=F Damp=F
 DIIS: error= 8.98D-03 at cycle   3 NSaved=   3.
 NSaved= 3 IEnMin= 3 EnMin= -1871.41860235912     IErMin= 3 ErrMin= 8.98D-03
 ErrMax= 8.98D-03  0.00D+00 EMaxC= 1.00D-01 BMatC= 1.25D-01 BMatP= 4.99D-01
 IDIUse=3 WtCom= 9.10D-01 WtEn= 8.98D-02
 Coeff-Com:  0.843D-01 0.347D+00 0.569D+00
 Coeff-En:   0.000D+00 0.178D+00 0.822D+00
 Coeff:      0.767D-01 0.332D+00 0.591D+00
 Gap=     0.383 Goal=   None    Shift=    0.000
 RMSDP=6.58D-04 MaxDP=5.91D-02 DE=-2.54D-01 OVMax= 6.62D-02

 Cycle   4  Pass 1  IDiag  1:
 RMSU=  3.23D-04    CP:  1.00D+00  7.00D-01  4.50D-01
 E= -1871.49793904696     Delta-E=       -0.079336687844 Rises=F Damp=F
 DIIS: error= 3.15D-03 at cycle   4 NSaved=   4.
 NSaved= 4 IEnMin= 4 EnMin= -1871.49793904696     IErMin= 4 ErrMin= 3.15D-03
 ErrMax= 3.15D-03  0.00D+00 EMaxC= 1.00D-01 BMatC= 1.52D-02 BMatP= 1.25D-01
 IDIUse=3 WtCom= 9.68D-01 WtEn= 3.15D-02
 Coeff-Com:  0.668D-02 0.106D+00 0.320D+00 0.567D+00
 Coeff-En:   0.000D+00 0.000D+00 0.680D-01 0.932D+00
 Coeff:      0.647D-02 0.103D+00 0.312D+00 0.578D+00
 Gap=     0.350 Goal=   None    Shift=    0.000
 RMSDP=2.09D-04 MaxDP=1.93D-02 DE=-7.93D-02 OVMax= 2.09D-02

 Cycle   5  Pass 1  IDiag  1:
 RMSU=  8.12D-05    CP:  1.00D+00  6.93D-01  6.12D-01  6.01D-01
 E= -1871.50848243374     Delta-E=       -0.010543386779 Rises=F Damp=F
 DIIS: error= 5.04D-04 at cycle   5 NSaved=   5.
 NSaved= 5 IEnMin= 5 EnMin= -1871.50848243374     IErMin= 5 ErrMin= 5.04D-04
 ErrMax= 5.04D-04  0.00D+00 EMaxC= 1.00D-01 BMatC= 5.39D-04 BMatP= 1.52D-02
 IDIUse=3 WtCom= 9.95D-01 WtEn= 5.04D-03
 Coeff-Com: -0.349D-03 0.343D-01 0.125D+00 0.286D+00 0.555D+00
 Coeff-En:   0.000D+00 0.000D+00 0.000D+00 0.000D+00 0.100D+01
 Coeff:     -0.347D-03 0.341D-01 0.125D+00 0.285D+00 0.557D+00
 Gap=     0.346 Goal=   None    Shift=    0.000
 RMSDP=3.76D-05 MaxDP=2.73D-03 DE=-1.05D-02 OVMax= 3.47D-03

 Cycle   6  Pass 1  IDiag  1:
 RMSU=  2.23D-05    CP:  1.00D+00  6.96D-01  6.05D-01  6.40D-01  6.88D-01
 E= -1871.50887360893     Delta-E=       -0.000391175186 Rises=F Damp=F
 DIIS: error= 1.04D-04 at cycle   6 NSaved=   6.
 NSaved= 6 IEnMin= 6 EnMin= -1871.50887360893     IErMin= 6 ErrMin= 1.04D-04
 ErrMax= 1.04D-04  0.00D+00 EMaxC= 1.00D-01 BMatC= 2.22D-05 BMatP= 5.39D-04
 IDIUse=3 WtCom= 9.99D-01 WtEn= 1.04D-03
 Coeff-Com: -0.695D-03 0.120D-02 0.105D-01 0.399D-01 0.195D+00 0.754D+00
 Coeff-En:   0.000D+00 0.000D+00 0.000D+00 0.000D+00 0.000D+00 0.100D+01
 Coeff:     -0.694D-03 0.119D-02 0.105D-01 0.399D-01 0.195D+00 0.754D+00
 Gap=     0.346 Goal=   None    Shift=    0.000
 RMSDP=1.04D-05 MaxDP=7.93D-04 DE=-3.91D-04 OVMax= 5.51D-04

 Cycle   7  Pass 1  IDiag  1:
 RMSU=  7.09D-06    CP:  1.00D+00  6.96D-01  6.09D-01  6.52D-01  7.50D-01
                    CP:  9.16D-01
 E= -1871.50888952920     Delta-E=       -0.000015920269 Rises=F Damp=F
 DIIS: error= 5.34D-05 at cycle   7 NSaved=   7.
 NSaved= 7 IEnMin= 7 EnMin= -1871.50888952920     IErMin= 7 ErrMin= 5.34D-05
 ErrMax= 5.34D-05  0.00D+00 EMaxC= 1.00D-01 BMatC= 3.68D-06 BMatP= 2.22D-05
 IDIUse=1 WtCom= 1.00D+00 WtEn= 0.00D+00
 Coeff-Com: -0.180D-03-0.337D-02-0.923D-02-0.135D-01 0.307D-01 0.343D+00
 Coeff-Com:  0.653D+00
 Coeff:     -0.180D-03-0.337D-02-0.923D-02-0.135D-01 0.307D-01 0.343D+00
 Coeff:      0.653D+00
 Gap=     0.346 Goal=   None    Shift=    0.000
 RMSDP=3.44D-06 MaxDP=2.29D-04 DE=-1.59D-05 OVMax= 3.35D-04

 Cycle   8  Pass 1  IDiag  1:
 RMSU=  1.98D-06    CP:  1.00D+00  6.96D-01  6.09D-01  6.52D-01  7.67D-01
                    CP:  9.96D-01  7.89D-01
 E= -1871.50889268254     Delta-E=       -0.000003153343 Rises=F Damp=F
 DIIS: error= 5.57D-06 at cycle   8 NSaved=   8.
 NSaved= 8 IEnMin= 8 EnMin= -1871.50889268254     IErMin= 8 ErrMin= 5.57D-06
 ErrMax= 5.57D-06  0.00D+00 EMaxC= 1.00D-01 BMatC= 1.08D-07 BMatP= 3.68D-06
 IDIUse=1 WtCom= 1.00D+00 WtEn= 0.00D+00
 Coeff-Com: -0.182D-04-0.108D-02-0.325D-02-0.660D-02-0.336D-02 0.464D-01
 Coeff-Com:  0.172D+00 0.796D+00
 Coeff:     -0.182D-04-0.108D-02-0.325D-02-0.660D-02-0.336D-02 0.464D-01
 Coeff:      0.172D+00 0.796D+00
 Gap=     0.346 Goal=   None    Shift=    0.000
 RMSDP=9.66D-07 MaxDP=1.13D-04 DE=-3.15D-06 OVMax= 1.26D-04

 Cycle   9  Pass 1  IDiag  1:
 RMSU=  6.33D-07    CP:  1.00D+00  6.96D-01  6.09D-01  6.52D-01  7.71D-01
                    CP:  1.01D+00  8.49D-01  1.05D+00
 E= -1871.50889279340     Delta-E=       -0.000000110862 Rises=F Damp=F
 DIIS: error= 3.90D-06 at cycle   9 NSaved=   9.
 NSaved= 9 IEnMin= 9 EnMin= -1871.50889279340     IErMin= 9 ErrMin= 3.90D-06
 ErrMax= 3.90D-06  0.00D+00 EMaxC= 1.00D-01 BMatC= 2.77D-08 BMatP= 1.08D-07
 IDIUse=1 WtCom= 1.00D+00 WtEn= 0.00D+00
 Coeff-Com:  0.126D-04-0.366D-04-0.163D-03-0.116D-02-0.558D-02-0.269D-01
 Coeff-Com: -0.114D-01 0.363D+00 0.683D+00
 Coeff:      0.126D-04-0.366D-04-0.163D-03-0.116D-02-0.558D-02-0.269D-01
 Coeff:     -0.114D-01 0.363D+00 0.683D+00
 Gap=     0.346 Goal=   None    Shift=    0.000
 RMSDP=3.94D-07 MaxDP=3.73D-05 DE=-1.11D-07 OVMax= 4.58D-05

 Cycle  10  Pass 1  IDiag  1:
 RMSU=  2.47D-07    CP:  1.00D+00  6.96D-01  6.09D-01  6.52D-01  7.72D-01
                    CP:  1.02D+00  8.64D-01  1.15D+00  8.99D-01
 E= -1871.50889281839     Delta-E=       -0.000000024990 Rises=F Damp=F
 DIIS: error= 8.54D-07 at cycle  10 NSaved=  10.
 NSaved=10 IEnMin=10 EnMin= -1871.50889281839     IErMin=10 ErrMin= 8.54D-07
 ErrMax= 8.54D-07  0.00D+00 EMaxC= 1.00D-01 BMatC= 1.84D-09 BMatP= 2.77D-08
 IDIUse=1 WtCom= 1.00D+00 WtEn= 0.00D+00
 Coeff-Com:  0.654D-05 0.101D-03 0.294D-03 0.275D-03-0.139D-02-0.140D-01
 Coeff-Com: -0.217D-01 0.401D-01 0.235D+00 0.761D+00
 Coeff:      0.654D-05 0.101D-03 0.294D-03 0.275D-03-0.139D-02-0.140D-01
 Coeff:     -0.217D-01 0.401D-01 0.235D+00 0.761D+00
 Gap=     0.346 Goal=   None    Shift=    0.000
 RMSDP=1.30D-07 MaxDP=1.21D-05 DE=-2.50D-08 OVMax= 2.26D-05

 Cycle  11  Pass 1  IDiag  1:
 RMSU=  8.07D-08    CP:  1.00D+00  6.96D-01  6.09D-01  6.52D-01  7.72D-01
                    CP:  1.02D+00  8.70D-01  1.17D+00  9.89D-01  9.59D-01
 E= -1871.50889282027     Delta-E=       -0.000000001880 Rises=F Damp=F
 DIIS: error= 4.23D-07 at cycle  11 NSaved=  11.
 NSaved=11 IEnMin=11 EnMin= -1871.50889282027     IErMin=11 ErrMin= 4.23D-07
 ErrMax= 4.23D-07  0.00D+00 EMaxC= 1.00D-01 BMatC= 3.43D-10 BMatP= 1.84D-09
 IDIUse=1 WtCom= 1.00D+00 WtEn= 0.00D+00
 Coeff-Com:  0.219D-05 0.517D-04 0.157D-03 0.223D-03-0.104D-03-0.433D-02
 Coeff-Com: -0.930D-02-0.129D-01 0.484D-01 0.356D+00 0.622D+00
 Coeff:      0.219D-05 0.517D-04 0.157D-03 0.223D-03-0.104D-03-0.433D-02
 Coeff:     -0.930D-02-0.129D-01 0.484D-01 0.356D+00 0.622D+00
 Gap=     0.346 Goal=   None    Shift=    0.000
 RMSDP=4.22D-08 MaxDP=3.82D-06 DE=-1.88D-09 OVMax= 5.75D-06

 Cycle  12  Pass 1  IDiag  1:
 RMSU=  2.75D-08    CP:  1.00D+00  6.96D-01  6.09D-01  6.52D-01  7.73D-01
                    CP:  1.02D+00  8.70D-01  1.18D+00  1.01D+00  1.05D+00
                    CP:  8.86D-01
 E= -1871.50889282058     Delta-E=       -0.000000000304 Rises=F Damp=F
 DIIS: error= 1.84D-07 at cycle  12 NSaved=  12.
 NSaved=12 IEnMin=12 EnMin= -1871.50889282058     IErMin=12 ErrMin= 1.84D-07
 ErrMax= 1.84D-07  0.00D+00 EMaxC= 1.00D-01 BMatC= 3.83D-11 BMatP= 3.43D-10
 IDIUse=1 WtCom= 1.00D+00 WtEn= 0.00D+00
 Coeff-Com: -0.199D-06 0.554D-05 0.217D-04 0.481D-04 0.243D-03 0.551D-03
 Coeff-Com: -0.180D-03-0.112D-01-0.193D-01 0.159D-01 0.234D+00 0.780D+00
 Coeff:     -0.199D-06 0.554D-05 0.217D-04 0.481D-04 0.243D-03 0.551D-03
 Coeff:     -0.180D-03-0.112D-01-0.193D-01 0.159D-01 0.234D+00 0.780D+00
 Gap=     0.346 Goal=   None    Shift=    0.000
 RMSDP=1.86D-08 MaxDP=1.40D-06 DE=-3.04D-10 OVMax= 3.48D-06

 Cycle  13  Pass 1  IDiag  1:
 RMSU=  1.08D-08    CP:  1.00D+00  6.96D-01  6.09D-01  6.52D-01  7.73D-01
                    CP:  1.02D+00  8.71D-01  1.18D+00  1.02D+00  1.07D+00
                    CP:  1.00D+00  9.72D-01
 E= -1871.50889282061     Delta-E=       -0.000000000028 Rises=F Damp=F
 DIIS: error= 6.36D-08 at cycle  13 NSaved=  13.
 NSaved=13 IEnMin=13 EnMin= -1871.50889282061     IErMin=13 ErrMin= 6.36D-08
 ErrMax= 6.36D-08  0.00D+00 EMaxC= 1.00D-01 BMatC= 6.68D-12 BMatP= 3.83D-11
 IDIUse=1 WtCom= 1.00D+00 WtEn= 0.00D+00
 Coeff-Com: -0.341D-06-0.305D-05-0.603D-05-0.239D-05 0.138D-03 0.744D-03
 Coeff-Com:  0.965D-03-0.379D-02-0.150D-01-0.344D-01 0.327D-01 0.362D+00
 Coeff-Com:  0.657D+00
 Coeff:     -0.341D-06-0.305D-05-0.603D-05-0.239D-05 0.138D-03 0.744D-03
 Coeff:      0.965D-03-0.379D-02-0.150D-01-0.344D-01 0.327D-01 0.362D+00
 Coeff:      0.657D+00
 Gap=     0.346 Goal=   None    Shift=    0.000
 RMSDP=6.78D-09 MaxDP=4.38D-07 DE=-2.82D-11 OVMax= 1.18D-06

 Error on total polarization charges =  0.00726
 SCF Done:  E(RCAM-B3LYP) =  -1871.50889282     A.U. after   13 cycles
            NFock= 13  Conv=0.68D-08     -V/T= 2.0078
 KE= 1.857086870595D+03 PE=-1.172410362723D+04 EE= 4.336069919625D+03
 Leave Link  502 at Sun Mar  3 18:03:26 2024, MaxMem=  5368709120 cpu:      1026.8
 (Enter /home/k0335/k033513/app/g09/l601.exe)
 Copying SCF densities to generalized density rwf, IOpCl= 0 IROHF=0.

 **********************************************************************

            Population analysis using the SCF density.

 **********************************************************************

 Alpha  occ. eigenvalues --  -24.82999 -24.82679 -24.82638 -24.82434 -24.82212
 Alpha  occ. eigenvalues --  -24.82070 -24.81315 -24.80980 -24.80975 -19.32245
 Alpha  occ. eigenvalues --  -19.20675 -19.20432 -14.50283 -14.45209 -14.45168
 Alpha  occ. eigenvalues --  -10.58708 -10.54341 -10.51837 -10.48325 -10.42281
 Alpha  occ. eigenvalues --  -10.42120 -10.34431 -10.30166 -10.30118 -10.25716
 Alpha  occ. eigenvalues --  -10.25664 -10.25509 -10.25459 -10.24468 -10.24396
 Alpha  occ. eigenvalues --   -1.42504  -1.41008  -1.37351  -1.33991  -1.33190
 Alpha  occ. eigenvalues --   -1.32271  -1.31718  -1.31429  -1.30291  -1.19347
 Alpha  occ. eigenvalues --   -1.18266  -1.14308  -1.07435  -1.05672  -1.01079
 Alpha  occ. eigenvalues --   -0.91938  -0.88740  -0.87993  -0.83952  -0.82297
 Alpha  occ. eigenvalues --   -0.81264  -0.81152  -0.79051  -0.76513  -0.74925
 Alpha  occ. eigenvalues --   -0.73560  -0.72575  -0.71496  -0.70020  -0.69635
 Alpha  occ. eigenvalues --   -0.68445  -0.68063  -0.67636  -0.66826  -0.66184
 Alpha  occ. eigenvalues --   -0.65570  -0.65313  -0.64788  -0.62569  -0.60081
 Alpha  occ. eigenvalues --   -0.58472  -0.57842  -0.56694  -0.56526  -0.56026
 Alpha  occ. eigenvalues --   -0.55493  -0.54946  -0.54734  -0.54578  -0.54085
 Alpha  occ. eigenvalues --   -0.53945  -0.53288  -0.52993  -0.52864  -0.52402
 Alpha  occ. eigenvalues --   -0.52158  -0.51574  -0.51024  -0.50706  -0.50409
 Alpha  occ. eigenvalues --   -0.50184  -0.49893  -0.49296  -0.49128  -0.48697
 Alpha  occ. eigenvalues --   -0.48277  -0.48082  -0.48039  -0.47948  -0.47245
 Alpha  occ. eigenvalues --   -0.46533  -0.46121  -0.45764  -0.44937  -0.43411
 Alpha  occ. eigenvalues --   -0.42432  -0.41958  -0.41242  -0.40168  -0.39941
 Alpha  occ. eigenvalues --   -0.39398  -0.39184  -0.39006  -0.36711  -0.35625
 Alpha  occ. eigenvalues --   -0.34470  -0.31763  -0.30696
 Alpha virt. eigenvalues --    0.03947   0.05726   0.07229   0.11308   0.13027
 Alpha virt. eigenvalues --    0.13587   0.14325   0.15200   0.16414   0.16806
 Alpha virt. eigenvalues --    0.17451   0.17581   0.18356   0.18951   0.19195
 Alpha virt. eigenvalues --    0.20325   0.20564   0.21185   0.21637   0.21860
 Alpha virt. eigenvalues --    0.22624   0.22730   0.23003   0.23267   0.23427
 Alpha virt. eigenvalues --    0.23946   0.24139   0.24397   0.24747   0.25340
 Alpha virt. eigenvalues --    0.25624   0.26156   0.26709   0.27387   0.27729
 Alpha virt. eigenvalues --    0.27955   0.29024   0.29707   0.29769   0.30363
 Alpha virt. eigenvalues --    0.30698   0.31908   0.32050   0.32558   0.33214
 Alpha virt. eigenvalues --    0.35135   0.35612   0.36429   0.41047   0.41657
 Alpha virt. eigenvalues --    0.44655   0.48165   0.49350   0.49829   0.50528
 Alpha virt. eigenvalues --    0.52270   0.53057   0.54254   0.54723   0.55313
 Alpha virt. eigenvalues --    0.55783   0.56141   0.56831   0.57247   0.57759
 Alpha virt. eigenvalues --    0.57978   0.58883   0.59770   0.60377   0.60821
 Alpha virt. eigenvalues --    0.61121   0.61752   0.64084   0.64717   0.65478
 Alpha virt. eigenvalues --    0.65903   0.66374   0.67105   0.68236   0.68931
 Alpha virt. eigenvalues --    0.69306   0.70378   0.71982   0.72439   0.73068
 Alpha virt. eigenvalues --    0.74374   0.75498   0.76626   0.77724   0.77945
 Alpha virt. eigenvalues --    0.80579   0.81785   0.82670   0.83632   0.84298
 Alpha virt. eigenvalues --    0.84694   0.85156   0.86327   0.87831   0.88280
 Alpha virt. eigenvalues --    0.89349   0.89681   0.90612   0.91360   0.92295
 Alpha virt. eigenvalues --    0.93203   0.93303   0.93901   0.94188   0.94824
 Alpha virt. eigenvalues --    0.95048   0.95742   0.95958   0.96574   0.96821
 Alpha virt. eigenvalues --    0.97980   0.98305   0.98769   1.00007   1.00209
 Alpha virt. eigenvalues --    1.00733   1.01502   1.01868   1.02060   1.02164
 Alpha virt. eigenvalues --    1.03994   1.04809   1.05414   1.06386   1.06804
 Alpha virt. eigenvalues --    1.07548   1.08287   1.10506   1.11224   1.12561
 Alpha virt. eigenvalues --    1.13430   1.14253   1.14922   1.15967   1.16715
 Alpha virt. eigenvalues --    1.18300   1.18690   1.19773   1.20347   1.22340
 Alpha virt. eigenvalues --    1.22980   1.23861   1.24385   1.24596   1.25291
 Alpha virt. eigenvalues --    1.27212   1.28774   1.29547   1.31769   1.33054
 Alpha virt. eigenvalues --    1.33846   1.34100   1.35755   1.36160   1.37119
 Alpha virt. eigenvalues --    1.37431   1.37978   1.39004   1.39972   1.40285
 Alpha virt. eigenvalues --    1.41973   1.42215   1.42517   1.43161   1.43605
 Alpha virt. eigenvalues --    1.44441   1.44978   1.45708   1.46155   1.47112
 Alpha virt. eigenvalues --    1.48371   1.49774   1.50931   1.52472   1.53117
 Alpha virt. eigenvalues --    1.53666   1.55238   1.55508   1.57094   1.57575
 Alpha virt. eigenvalues --    1.58913   1.60287   1.61022   1.61459   1.63325
 Alpha virt. eigenvalues --    1.63819   1.64638   1.64737   1.66292   1.67252
 Alpha virt. eigenvalues --    1.67831   1.68827   1.71259   1.72138   1.73126
 Alpha virt. eigenvalues --    1.73708   1.74099   1.75578   1.75826   1.76470
 Alpha virt. eigenvalues --    1.77181   1.78097   1.79407   1.80484   1.80790
 Alpha virt. eigenvalues --    1.82382   1.83152   1.84292   1.84902   1.85648
 Alpha virt. eigenvalues --    1.85859   1.86759   1.87548   1.87826   1.88167
 Alpha virt. eigenvalues --    1.89352   1.89729   1.90202   1.90790   1.91664
 Alpha virt. eigenvalues --    1.91716   1.92408   1.92853   1.93617   1.93868
 Alpha virt. eigenvalues --    1.94648   1.94904   1.95653   1.95917   1.96905
 Alpha virt. eigenvalues --    1.97606   1.97956   1.98201   1.98659   1.99201
 Alpha virt. eigenvalues --    1.99687   2.00515   2.01196   2.01880   2.02355
 Alpha virt. eigenvalues --    2.03085   2.03412   2.03814   2.04211   2.05020
 Alpha virt. eigenvalues --    2.05907   2.06773   2.07208   2.07793   2.08402
 Alpha virt. eigenvalues --    2.10185   2.10661   2.10899   2.12481   2.12687
 Alpha virt. eigenvalues --    2.12751   2.13644   2.14009   2.14248   2.14653
 Alpha virt. eigenvalues --    2.15277   2.15305   2.16022   2.16261   2.17495
 Alpha virt. eigenvalues --    2.17974   2.18245   2.18638   2.19748   2.20322
 Alpha virt. eigenvalues --    2.21065   2.21845   2.22473   2.23900   2.24180
 Alpha virt. eigenvalues --    2.25276   2.26228   2.26448   2.28221   2.29258
 Alpha virt. eigenvalues --    2.29876   2.30050   2.30811   2.32342   2.32861
 Alpha virt. eigenvalues --    2.33724   2.34704   2.35427   2.36635   2.37067
 Alpha virt. eigenvalues --    2.37652   2.38804   2.39892   2.40549   2.40644
 Alpha virt. eigenvalues --    2.41055   2.42818   2.43193   2.44356   2.44609
 Alpha virt. eigenvalues --    2.46259   2.47342   2.47852   2.48958   2.50424
 Alpha virt. eigenvalues --    2.50981   2.52085   2.53541   2.54399   2.55565
 Alpha virt. eigenvalues --    2.57094   2.58682   2.59198   2.60093   2.61686
 Alpha virt. eigenvalues --    2.62330   2.64045   2.66181   2.66891   2.68007
 Alpha virt. eigenvalues --    2.68290   2.70005   2.71654   2.73257   2.73577
 Alpha virt. eigenvalues --    2.74675   2.75616   2.75965   2.76730   2.78262
 Alpha virt. eigenvalues --    2.79400   2.79987   2.80518   2.81807   2.82159
 Alpha virt. eigenvalues --    2.82999   2.83937   2.84879   2.85328   2.86559
 Alpha virt. eigenvalues --    2.87405   2.88707   2.89430   2.89740   2.90030
 Alpha virt. eigenvalues --    2.90922   2.92400   2.94027   2.95183   2.96101
 Alpha virt. eigenvalues --    2.96481   2.97480   2.98386   2.98860   2.99297
 Alpha virt. eigenvalues --    2.99652   3.00028   3.00763   3.01184   3.02043
 Alpha virt. eigenvalues --    3.05997   3.06272   3.06695   3.07987   3.09747
 Alpha virt. eigenvalues --    3.10945   3.13456   3.15044   3.16501   3.17005
 Alpha virt. eigenvalues --    3.20310   3.23067   3.26406   3.27106   3.27590
 Alpha virt. eigenvalues --    3.31987   3.33731   3.34247   3.34668   3.36210
 Alpha virt. eigenvalues --    3.37451   3.38689   3.39643   3.40927   3.41976
 Alpha virt. eigenvalues --    3.43242   3.45839   3.47741   3.52617   3.53612
 Alpha virt. eigenvalues --    3.55394   3.56172   3.56961   3.61781   3.62785
 Alpha virt. eigenvalues --    3.65426   3.65891   4.08042   4.18141   4.23189
 Alpha virt. eigenvalues --    4.24425   4.26242   4.34227   4.36449   4.37581
 Alpha virt. eigenvalues --    4.39565   4.41724   4.44859   4.51741   4.53522
 Alpha virt. eigenvalues --    4.55612   4.62909   4.64870   4.67395   4.69040
 Alpha virt. eigenvalues --    4.77925   4.79347   4.81543   4.82800   4.88409
 Alpha virt. eigenvalues --    4.97816   5.12162   5.45134   5.51769   6.00636
 Alpha virt. eigenvalues --    6.17225   6.29243
          Condensed to atoms (all electrons):
               1          2          3          4          5          6
     1  C    4.913852   0.372864  -0.051243  -0.004466   0.000063   0.000006
     2  C    0.372864   4.868033   0.369681  -0.040256   0.003557  -0.000027
     3  C   -0.051243   0.369681   4.956784   0.367150  -0.052053  -0.002068
     4  C   -0.004466  -0.040256   0.367150   4.799200   0.282659  -0.038706
     5  N    0.000063   0.003557  -0.052053   0.282659   7.152261   0.259241
     6  C    0.000006  -0.000027  -0.002068  -0.038706   0.259241   4.683102
     7  N    0.000000   0.000000   0.000081   0.002713  -0.035369   0.263870
     8  C    0.000000   0.000000   0.000007  -0.000082   0.002603  -0.038347
     9  C    0.000000   0.000000  -0.000001   0.000008   0.000069  -0.002060
    10  C    0.000000   0.000000   0.000000   0.000000  -0.000001  -0.000009
    11  C    0.000000   0.000000   0.000000   0.000000   0.000000   0.000000
    12  C    0.000000   0.000000  -0.000010   0.000103  -0.005202  -0.029186
    13  O    0.000000   0.000000   0.000000   0.000001   0.000059   0.001935
    14  N    0.000000   0.000000  -0.000275   0.003333  -0.108340   0.005525
    15  C    0.000000   0.000000   0.000009  -0.000018   0.002614  -0.000410
    16  F    0.000000   0.000000   0.000000   0.000000   0.000002  -0.000011
    17  F    0.000000   0.000000   0.000000   0.000000  -0.000021   0.000010
    18  C    0.000000   0.000000   0.000000  -0.000010   0.000062   0.000004
    19  F    0.000000   0.000000  -0.000001   0.000005  -0.000007   0.000001
    20  O    0.000000   0.000000   0.000000   0.000000   0.000000   0.000000
    21  C    0.000000   0.000000   0.000000   0.000000   0.000000   0.000000
    22  F    0.000000   0.000000   0.000000   0.000000   0.000000   0.000000
    23  F    0.000000   0.000000   0.000000   0.000000   0.000000   0.000000
    24  F    0.000000   0.000000   0.000000   0.000000   0.000000   0.000000
    25  C    0.000000   0.000000   0.000000   0.000001  -0.000048   0.000001
    26  F    0.000000   0.000000   0.000000   0.000000   0.000000   0.000000
    27  F    0.000000   0.000000   0.000000   0.000000   0.000000   0.000000
    28  F    0.000000   0.000000   0.000000   0.000004  -0.000581   0.000005
    29  C   -0.000038   0.000039  -0.004782  -0.027328   0.300828  -0.026104
    30  O    0.000010  -0.000037  -0.003873   0.001095  -0.103410   0.002064
    31  H    0.385772  -0.029800   0.004662   0.000121   0.000000   0.000000
    32  H    0.391996  -0.036504  -0.004876  -0.000782  -0.000012   0.000000
    33  H    0.392129  -0.035769  -0.005196   0.001909  -0.000022  -0.000002
    34  H   -0.039531   0.390740  -0.032459   0.004433  -0.000119  -0.000002
    35  H   -0.040853   0.391097  -0.039994  -0.007199   0.000053  -0.000022
    36  H    0.005057  -0.030985   0.384765  -0.040281  -0.004151   0.003148
    37  H   -0.006624  -0.032597   0.388431  -0.035058  -0.005853  -0.000581
    38  H   -0.000547  -0.000699  -0.048000   0.390929  -0.039871  -0.005718
    39  H    0.003256  -0.002950  -0.039676   0.389874  -0.032336   0.004614
    40  H    0.000000   0.000001  -0.001863  -0.003462  -0.034496   0.390482
    41  H    0.000000  -0.000103   0.003341   0.001657  -0.065056   0.401780
    42  H    0.000000   0.000000   0.000000  -0.000012   0.000089  -0.005625
    43  H    0.000000   0.000000   0.000000   0.000002  -0.000142   0.004540
    44  H    0.000000   0.000000  -0.000001   0.000005   0.000045   0.003096
    45  H    0.000000   0.000000   0.000000   0.000000  -0.000017  -0.000672
    46  H    0.000000   0.000000   0.000000   0.000000   0.000000   0.000009
    47  H    0.000000   0.000000   0.000000   0.000000   0.000000  -0.000018
    48  H    0.000000   0.000000   0.000000   0.000000   0.000000  -0.000001
    49  H    0.000000   0.000000   0.000000   0.000000   0.000000   0.000000
    50  H    0.000000   0.000000   0.000000   0.000000   0.000000   0.000000
               7          8          9         10         11         12
     1  C    0.000000   0.000000   0.000000   0.000000   0.000000   0.000000
     2  C    0.000000   0.000000   0.000000   0.000000   0.000000   0.000000
     3  C    0.000081   0.000007  -0.000001   0.000000   0.000000  -0.000010
     4  C    0.002713  -0.000082   0.000008   0.000000   0.000000   0.000103
     5  N   -0.035369   0.002603   0.000069  -0.000001   0.000000  -0.005202
     6  C    0.263870  -0.038347  -0.002060  -0.000009   0.000000  -0.029186
     7  N    7.120136   0.273708  -0.052834   0.003560  -0.000116   0.333643
     8  C    0.273708   4.805484   0.363113  -0.036474   0.003655  -0.026475
     9  C   -0.052834   0.363113   4.953138   0.373662  -0.045503  -0.004521
    10  C    0.003560  -0.036474   0.373662   4.859110   0.370090  -0.000001
    11  C   -0.000116   0.003655  -0.045503   0.370090   4.910781  -0.000005
    12  C    0.333643  -0.026475  -0.004521  -0.000001  -0.000005   4.150692
    13  O   -0.102052   0.002352  -0.003747  -0.000079   0.000001   0.577881
    14  N   -0.101220   0.003484  -0.000237   0.000000   0.000000   0.182053
    15  C    0.002420  -0.000027   0.000014   0.000000   0.000000   0.002024
    16  F    0.000039   0.000001   0.000000   0.000000   0.000000   0.008041
    17  F   -0.000012   0.000010   0.000000   0.000000   0.000000   0.004870
    18  C   -0.000058   0.000001   0.000000   0.000000   0.000000   0.002263
    19  F    0.000000   0.000000   0.000000   0.000000   0.000000  -0.000034
    20  O    0.000000   0.000000   0.000000   0.000000   0.000000  -0.000010
    21  C    0.000000   0.000000   0.000000   0.000000   0.000000  -0.000012
    22  F    0.000000   0.000000   0.000000   0.000000   0.000000   0.000010
    23  F    0.000000   0.000000   0.000000   0.000000   0.000000   0.000000
    24  F    0.000000   0.000000   0.000000   0.000000   0.000000  -0.000003
    25  C   -0.000002   0.000000   0.000000   0.000000   0.000000  -0.000413
    26  F    0.000000   0.000000   0.000000   0.000000   0.000000   0.000080
    27  F    0.000000   0.000000   0.000000   0.000000   0.000000   0.000000
    28  F   -0.000002   0.000000   0.000000   0.000000   0.000000   0.000220
    29  C   -0.008468   0.000265  -0.000014   0.000000   0.000000  -0.010199
    30  O    0.000039   0.000001   0.000000   0.000000   0.000000   0.000219
    31  H    0.000000   0.000000   0.000000   0.000000   0.000000   0.000000
    32  H    0.000000   0.000000   0.000000   0.000000   0.000000   0.000000
    33  H    0.000000   0.000000   0.000000   0.000000   0.000000   0.000000
    34  H    0.000000   0.000000   0.000000   0.000000   0.000000   0.000000
    35  H    0.000000   0.000000   0.000000   0.000000   0.000000   0.000000
    36  H    0.000038   0.000006  -0.000002   0.000000   0.000000  -0.000003
    37  H   -0.000015   0.000000   0.000000   0.000000   0.000000   0.000006
    38  H    0.000093  -0.000014   0.000001   0.000000   0.000000  -0.000002
    39  H   -0.000142   0.000002   0.000000   0.000000   0.000000  -0.000021
    40  H   -0.034846  -0.003162  -0.002096  -0.000001  -0.000001   0.002958
    41  H   -0.065630   0.001477   0.003807  -0.000084   0.000006  -0.002759
    42  H   -0.040033   0.391005  -0.046639  -0.001406  -0.000079   0.004944
    43  H   -0.031914   0.389789  -0.039807  -0.002624  -0.000010  -0.005200
    44  H   -0.003400  -0.038314   0.386226  -0.036061  -0.003337  -0.000142
    45  H   -0.006315  -0.033260   0.389271  -0.033709  -0.003352   0.004692
    46  H    0.000039  -0.004276  -0.040072   0.394266  -0.037568  -0.000021
    47  H    0.000060  -0.003601  -0.041241   0.392428  -0.038276   0.000006
    48  H    0.000001   0.000070  -0.005744  -0.035362   0.390546   0.000000
    49  H    0.000001   0.000073  -0.005299  -0.035101   0.391693  -0.000002
    50  H    0.000001  -0.000142   0.004420  -0.029134   0.383717   0.000000
              13         14         15         16         17         18
     1  C    0.000000   0.000000   0.000000   0.000000   0.000000   0.000000
     2  C    0.000000   0.000000   0.000000   0.000000   0.000000   0.000000
     3  C    0.000000  -0.000275   0.000009   0.000000   0.000000   0.000000
     4  C    0.000001   0.003333  -0.000018   0.000000   0.000000  -0.000010
     5  N    0.000059  -0.108340   0.002614   0.000002  -0.000021   0.000062
     6  C    0.001935   0.005525  -0.000410  -0.000011   0.000010   0.000004
     7  N   -0.102052  -0.101220   0.002420   0.000039  -0.000012  -0.000058
     8  C    0.002352   0.003484  -0.000027   0.000001   0.000010   0.000001
     9  C   -0.003747  -0.000237   0.000014   0.000000   0.000000   0.000000
    10  C   -0.000079   0.000000   0.000000   0.000000   0.000000   0.000000
    11  C    0.000001   0.000000   0.000000   0.000000   0.000000   0.000000
    12  C    0.577881   0.182053   0.002024   0.008041   0.004870   0.002263
    13  O    8.123079  -0.083143   0.018927  -0.002108  -0.020353   0.000257
    14  N   -0.083143   7.594847   0.174338  -0.073457  -0.033046  -0.030876
    15  C    0.018927   0.174338   4.465232   0.262152   0.211422   0.180072
    16  F   -0.002108  -0.073457   0.262152   9.132806  -0.036226  -0.018923
    17  F   -0.020353  -0.033046   0.211422  -0.036226   9.162154  -0.025536
    18  C    0.000257  -0.030876   0.180072  -0.018923  -0.025536   4.982526
    19  F    0.000000  -0.000660  -0.024493  -0.000249   0.000326   0.246484
    20  O   -0.000001   0.001312  -0.018528  -0.001292  -0.003534   0.159581
    21  C    0.000024   0.000272  -0.002946   0.000191   0.016659  -0.004103
    22  F   -0.000006   0.000032   0.016346  -0.000692  -0.009389  -0.008943
    23  F    0.000000   0.000000  -0.000090   0.000000  -0.000005   0.001575
    24  F    0.000000  -0.000029  -0.005322   0.000011  -0.002801   0.004023
    25  C   -0.000028  -0.001244  -0.057796   0.001754   0.004891   0.179903
    26  F   -0.000002  -0.001563   0.010435  -0.000001  -0.001619  -0.040542
    27  F    0.000000  -0.000003   0.002228  -0.000001  -0.000003  -0.025122
    28  F    0.000000   0.000456  -0.001652   0.000000  -0.000107  -0.032482
    29  C   -0.000020   0.194898  -0.008848   0.004952   0.001725  -0.006917
    30  O   -0.000026  -0.085959   0.009418  -0.000607   0.000021   0.010238
    31  H    0.000000   0.000000   0.000000   0.000000   0.000000   0.000000
    32  H    0.000000   0.000000   0.000000   0.000000   0.000000   0.000000
    33  H    0.000000   0.000000   0.000000   0.000000   0.000000   0.000000
    34  H    0.000000   0.000000   0.000000   0.000000   0.000000   0.000000
    35  H    0.000000   0.000000   0.000000   0.000000   0.000000   0.000000
    36  H    0.000000   0.000007   0.000000   0.000000   0.000000   0.000000
    37  H    0.000000  -0.000026   0.000003   0.000000   0.000000  -0.000001
    38  H    0.000000  -0.000075   0.000000   0.000000   0.000000   0.000000
    39  H    0.000000   0.000369  -0.000009   0.000000   0.000000   0.000001
    40  H   -0.000119  -0.000347  -0.000001   0.000000   0.000000   0.000000
    41  H    0.000440   0.000795   0.000205  -0.000015   0.000000  -0.000001
    42  H    0.000510  -0.000074  -0.000001   0.000000   0.000000   0.000000
    43  H    0.008989   0.000331  -0.000012   0.000000  -0.000001   0.000000
    44  H    0.000121   0.000012   0.000000   0.000000   0.000000   0.000000
    45  H    0.006073  -0.000025   0.000003   0.000000   0.000001   0.000000
    46  H    0.000032   0.000000   0.000000   0.000000   0.000000   0.000000
    47  H   -0.000003   0.000000   0.000000   0.000000   0.000000   0.000000
    48  H    0.000000   0.000000   0.000000   0.000000   0.000000   0.000000
    49  H   -0.000002   0.000000   0.000000   0.000000   0.000000   0.000000
    50  H    0.000000   0.000000   0.000000   0.000000   0.000000   0.000000
              19         20         21         22         23         24
     1  C    0.000000   0.000000   0.000000   0.000000   0.000000   0.000000
     2  C    0.000000   0.000000   0.000000   0.000000   0.000000   0.000000
     3  C   -0.000001   0.000000   0.000000   0.000000   0.000000   0.000000
     4  C    0.000005   0.000000   0.000000   0.000000   0.000000   0.000000
     5  N   -0.000007   0.000000   0.000000   0.000000   0.000000   0.000000
     6  C    0.000001   0.000000   0.000000   0.000000   0.000000   0.000000
     7  N    0.000000   0.000000   0.000000   0.000000   0.000000   0.000000
     8  C    0.000000   0.000000   0.000000   0.000000   0.000000   0.000000
     9  C    0.000000   0.000000   0.000000   0.000000   0.000000   0.000000
    10  C    0.000000   0.000000   0.000000   0.000000   0.000000   0.000000
    11  C    0.000000   0.000000   0.000000   0.000000   0.000000   0.000000
    12  C   -0.000034  -0.000010  -0.000012   0.000010   0.000000  -0.000003
    13  O    0.000000  -0.000001   0.000024  -0.000006   0.000000   0.000000
    14  N   -0.000660   0.001312   0.000272   0.000032   0.000000  -0.000029
    15  C   -0.024493  -0.018528  -0.002946   0.016346  -0.000090  -0.005322
    16  F   -0.000249  -0.001292   0.000191  -0.000692   0.000000   0.000011
    17  F    0.000326  -0.003534   0.016659  -0.009389  -0.000005  -0.002801
    18  C    0.246484   0.159581  -0.004103  -0.008943   0.001575   0.004023
    19  F    9.109063  -0.048157   0.000535  -0.000005  -0.000003  -0.000003
    20  O   -0.048157   8.346761   0.234483  -0.046078  -0.038988  -0.046921
    21  C    0.000535   0.234483   3.839943   0.301344   0.332884   0.294925
    22  F   -0.000005  -0.046078   0.301344   9.061061  -0.038139  -0.032654
    23  F   -0.000003  -0.038988   0.332884  -0.038139   9.026945  -0.037572
    24  F   -0.000003  -0.046921   0.294925  -0.032654  -0.037572   9.066337
    25  C   -0.012682  -0.028847  -0.003260  -0.000072  -0.000152   0.010612
    26  F    0.000296   0.000343   0.002094  -0.000006  -0.000001  -0.008664
    27  F   -0.000645  -0.000951   0.001080   0.000000  -0.000001  -0.000438
    28  F   -0.000376   0.000609   0.000074   0.000000   0.000000   0.000000
    29  C    0.004853   0.000030   0.000029   0.000002   0.000000   0.000000
    30  O   -0.025643   0.000041   0.000013   0.000000   0.000000   0.000000
    31  H    0.000000   0.000000   0.000000   0.000000   0.000000   0.000000
    32  H    0.000000   0.000000   0.000000   0.000000   0.000000   0.000000
    33  H    0.000000   0.000000   0.000000   0.000000   0.000000   0.000000
    34  H    0.000000   0.000000   0.000000   0.000000   0.000000   0.000000
    35  H    0.000000   0.000000   0.000000   0.000000   0.000000   0.000000
    36  H    0.000000   0.000000   0.000000   0.000000   0.000000   0.000000
    37  H    0.000000   0.000000   0.000000   0.000000   0.000000   0.000000
    38  H    0.000000   0.000000   0.000000   0.000000   0.000000   0.000000
    39  H    0.000001   0.000000   0.000000   0.000000   0.000000   0.000000
    40  H    0.000000   0.000000   0.000000   0.000000   0.000000   0.000000
    41  H    0.000000   0.000000   0.000000   0.000000   0.000000   0.000000
    42  H    0.000000   0.000000   0.000000   0.000000   0.000000   0.000000
    43  H    0.000000   0.000000   0.000000   0.000000   0.000000   0.000000
    44  H    0.000000   0.000000   0.000000   0.000000   0.000000   0.000000
    45  H    0.000000   0.000000   0.000000   0.000000   0.000000   0.000000
    46  H    0.000000   0.000000   0.000000   0.000000   0.000000   0.000000
    47  H    0.000000   0.000000   0.000000   0.000000   0.000000   0.000000
    48  H    0.000000   0.000000   0.000000   0.000000   0.000000   0.000000
    49  H    0.000000   0.000000   0.000000   0.000000   0.000000   0.000000
    50  H    0.000000   0.000000   0.000000   0.000000   0.000000   0.000000
              25         26         27         28         29         30
     1  C    0.000000   0.000000   0.000000   0.000000  -0.000038   0.000010
     2  C    0.000000   0.000000   0.000000   0.000000   0.000039  -0.000037
     3  C    0.000000   0.000000   0.000000   0.000000  -0.004782  -0.003873
     4  C    0.000001   0.000000   0.000000   0.000004  -0.027328   0.001095
     5  N   -0.000048   0.000000   0.000000  -0.000581   0.300828  -0.103410
     6  C    0.000001   0.000000   0.000000   0.000005  -0.026104   0.002064
     7  N   -0.000002   0.000000   0.000000  -0.000002  -0.008468   0.000039
     8  C    0.000000   0.000000   0.000000   0.000000   0.000265   0.000001
     9  C    0.000000   0.000000   0.000000   0.000000  -0.000014   0.000000
    10  C    0.000000   0.000000   0.000000   0.000000   0.000000   0.000000
    11  C    0.000000   0.000000   0.000000   0.000000   0.000000   0.000000
    12  C   -0.000413   0.000080   0.000000   0.000220  -0.010199   0.000219
    13  O   -0.000028  -0.000002   0.000000   0.000000  -0.000020  -0.000026
    14  N   -0.001244  -0.001563  -0.000003   0.000456   0.194898  -0.085959
    15  C   -0.057796   0.010435   0.002228  -0.001652  -0.008848   0.009418
    16  F    0.001754  -0.000001  -0.000001   0.000000   0.004952  -0.000607
    17  F    0.004891  -0.001619  -0.000003  -0.000107   0.001725   0.000021
    18  C    0.179903  -0.040542  -0.025122  -0.032482  -0.006917   0.010238
    19  F   -0.012682   0.000296  -0.000645  -0.000376   0.004853  -0.025643
    20  O   -0.028847   0.000343  -0.000951   0.000609   0.000030   0.000041
    21  C   -0.003260   0.002094   0.001080   0.000074   0.000029   0.000013
    22  F   -0.000072  -0.000006   0.000000   0.000000   0.000002   0.000000
    23  F   -0.000152  -0.000001  -0.000001   0.000000   0.000000   0.000000
    24  F    0.010612  -0.008664  -0.000438   0.000000   0.000000   0.000000
    25  C    4.264211   0.272109   0.290450   0.291218   0.001408  -0.002578
    26  F    0.272109   9.090151  -0.040018  -0.042135  -0.000061   0.000005
    27  F    0.290450  -0.040018   9.067527  -0.039951   0.000007  -0.000010
    28  F    0.291218  -0.042135  -0.039951   9.054625   0.011948  -0.004295
    29  C    0.001408  -0.000061   0.000007   0.011948   4.188792   0.564685
    30  O   -0.002578   0.000005  -0.000010  -0.004295   0.564685   8.163795
    31  H    0.000000   0.000000   0.000000   0.000000   0.000000   0.000000
    32  H    0.000000   0.000000   0.000000   0.000000  -0.000001   0.000035
    33  H    0.000000   0.000000   0.000000   0.000000  -0.000014  -0.000035
    34  H    0.000000   0.000000   0.000000   0.000000  -0.000005   0.000001
    35  H    0.000000   0.000000   0.000000   0.000000   0.000004  -0.000003
    36  H    0.000000   0.000000   0.000000   0.000000  -0.000211   0.000107
[...]
    47  H    0.000000   0.000000   0.000000   0.000000   0.000000   0.000000
    48  H    0.000000   0.000000   0.000000   0.000000   0.000000   0.000000
    49  H    0.000000   0.000000   0.000000   0.000000   0.000000   0.000000
    50  H    0.000000   0.000000   0.000000   0.000000   0.000000   0.000000
              31         32         33         34         35         36
     1  C    0.385772   0.391996   0.392129  -0.039531  -0.040853   0.005057
     2  C   -0.029800  -0.036504  -0.035769   0.390740   0.391097  -0.030985
     3  C    0.004662  -0.004876  -0.005196  -0.032459  -0.039994   0.384765
     4  C    0.000121  -0.000782   0.001909   0.004433  -0.007199  -0.040281
     5  N    0.000000  -0.000012  -0.000022  -0.000119   0.000053  -0.004151
     6  C    0.000000   0.000000  -0.000002  -0.000002  -0.000022   0.003148
     7  N    0.000000   0.000000   0.000000   0.000000   0.000000   0.000038
     8  C    0.000000   0.000000   0.000000   0.000000   0.000000   0.000006
     9  C    0.000000   0.000000   0.000000   0.000000   0.000000  -0.000002
    10  C    0.000000   0.000000   0.000000   0.000000   0.000000   0.000000
    11  C    0.000000   0.000000   0.000000   0.000000   0.000000   0.000000
    12  C    0.000000   0.000000   0.000000   0.000000   0.000000  -0.000003
    13  O    0.000000   0.000000   0.000000   0.000000   0.000000   0.000000
    14  N    0.000000   0.000000   0.000000   0.000000   0.000000   0.000007
    15  C    0.000000   0.000000   0.000000   0.000000   0.000000   0.000000
    16  F    0.000000   0.000000   0.000000   0.000000   0.000000   0.000000
    17  F    0.000000   0.000000   0.000000   0.000000   0.000000   0.000000
    18  C    0.000000   0.000000   0.000000   0.000000   0.000000   0.000000
    19  F    0.000000   0.000000   0.000000   0.000000   0.000000   0.000000
    20  O    0.000000   0.000000   0.000000   0.000000   0.000000   0.000000
    21  C    0.000000   0.000000   0.000000   0.000000   0.000000   0.000000
    22  F    0.000000   0.000000   0.000000   0.000000   0.000000   0.000000
    23  F    0.000000   0.000000   0.000000   0.000000   0.000000   0.000000
    24  F    0.000000   0.000000   0.000000   0.000000   0.000000   0.000000
    25  C    0.000000   0.000000   0.000000   0.000000   0.000000   0.000000
    26  F    0.000000   0.000000   0.000000   0.000000   0.000000   0.000000
    27  F    0.000000   0.000000   0.000000   0.000000   0.000000   0.000000
    28  F    0.000000   0.000000   0.000000   0.000000   0.000000   0.000000
    29  C    0.000000  -0.000001  -0.000014  -0.000005   0.000004  -0.000211
    30  O    0.000000   0.000035  -0.000035   0.000001  -0.000003   0.000107
    31  H    0.600511  -0.029605  -0.029634  -0.004686  -0.002565  -0.000175
    32  H   -0.029605   0.591669  -0.031367  -0.004023   0.005311   0.000054
    33  H   -0.029634  -0.031367   0.598913   0.005233  -0.005349  -0.000054
    34  H   -0.004686  -0.004023   0.005233   0.621288  -0.035145  -0.004967
    35  H   -0.002565   0.005311  -0.005349  -0.035145   0.630681  -0.003084
    36  H   -0.000175   0.000054  -0.000054  -0.004967  -0.003084   0.626053
    37  H    0.000020   0.004997  -0.000140  -0.003084   0.005288  -0.035929
    38  H   -0.000018   0.000070   0.000290  -0.000072   0.004824  -0.005047
    39  H   -0.000141   0.000408   0.001138  -0.000063  -0.000134   0.004984
    40  H    0.000000   0.000000   0.000000  -0.000001   0.000009   0.000274
    41  H    0.000000   0.000000   0.000000   0.000007   0.000004   0.000792
    42  H    0.000000   0.000000   0.000000   0.000000   0.000000   0.000000
    43  H    0.000000   0.000000   0.000000   0.000000   0.000000   0.000000
    44  H    0.000000   0.000000   0.000000   0.000000   0.000000   0.000000
    45  H    0.000000   0.000000   0.000000   0.000000   0.000000   0.000000
    46  H    0.000000   0.000000   0.000000   0.000000   0.000000   0.000000
    47  H    0.000000   0.000000   0.000000   0.000000   0.000000   0.000000
    48  H    0.000000   0.000000   0.000000   0.000000   0.000000   0.000000
    49  H    0.000000   0.000000   0.000000   0.000000   0.000000   0.000000
    50  H    0.000000   0.000000   0.000000   0.000000   0.000000   0.000000
              37         38         39         40         41         42
     1  C   -0.006624  -0.000547   0.003256   0.000000   0.000000   0.000000
     2  C   -0.032597  -0.000699  -0.002950   0.000001  -0.000103   0.000000
     3  C    0.388431  -0.048000  -0.039676  -0.001863   0.003341   0.000000
     4  C   -0.035058   0.390929   0.389874  -0.003462   0.001657  -0.000012
     5  N   -0.005853  -0.039871  -0.032336  -0.034496  -0.065056   0.000089
     6  C   -0.000581  -0.005718   0.004614   0.390482   0.401780  -0.005625
     7  N   -0.000015   0.000093  -0.000142  -0.034846  -0.065630  -0.040033
     8  C    0.000000  -0.000014   0.000002  -0.003162   0.001477   0.391005
     9  C    0.000000   0.000001   0.000000  -0.002096   0.003807  -0.046639
    10  C    0.000000   0.000000   0.000000  -0.000001  -0.000084  -0.001406
    11  C    0.000000   0.000000   0.000000  -0.000001   0.000006  -0.000079
    12  C    0.000006  -0.000002  -0.000021   0.002958  -0.002759   0.004944
    13  O    0.000000   0.000000   0.000000  -0.000119   0.000440   0.000510
    14  N   -0.000026  -0.000075   0.000369  -0.000347   0.000795  -0.000074
    15  C    0.000003   0.000000  -0.000009  -0.000001   0.000205  -0.000001
    16  F    0.000000   0.000000   0.000000   0.000000  -0.000015   0.000000
    17  F    0.000000   0.000000   0.000000   0.000000   0.000000   0.000000
    18  C   -0.000001   0.000000   0.000001   0.000000  -0.000001   0.000000
    19  F    0.000000   0.000000   0.000001   0.000000   0.000000   0.000000
    20  O    0.000000   0.000000   0.000000   0.000000   0.000000   0.000000
    21  C    0.000000   0.000000   0.000000   0.000000   0.000000   0.000000
    22  F    0.000000   0.000000   0.000000   0.000000   0.000000   0.000000
    23  F    0.000000   0.000000   0.000000   0.000000   0.000000   0.000000
    24  F    0.000000   0.000000   0.000000   0.000000   0.000000   0.000000
    25  C    0.000000   0.000000   0.000004   0.000000   0.000000   0.000000
    26  F    0.000000   0.000000   0.000000   0.000000   0.000000   0.000000
    27  F    0.000000   0.000000   0.000000   0.000000   0.000000   0.000000
    28  F    0.000000   0.000000   0.000011   0.000000   0.000000   0.000000
    29  C    0.004723   0.005273  -0.005286   0.002830  -0.002857  -0.000006
    30  O    0.005579   0.000514   0.009869  -0.000107   0.000328   0.000000
    31  H    0.000020  -0.000018  -0.000141   0.000000   0.000000   0.000000
    32  H    0.004997   0.000070   0.000408   0.000000   0.000000   0.000000
    33  H   -0.000140   0.000290   0.001138   0.000000   0.000000   0.000000
    34  H   -0.003084  -0.000072  -0.000063  -0.000001   0.000007   0.000000
    35  H    0.005288   0.004824  -0.000134   0.000009   0.000004   0.000000
    36  H   -0.035929  -0.005047   0.004984   0.000274   0.000792   0.000000
    37  H    0.591221   0.004963  -0.005538   0.000015   0.000541   0.000000
    38  H    0.004963   0.596153  -0.029273   0.005535  -0.000571  -0.000010
    39  H   -0.005538  -0.029273   0.558663   0.000337  -0.000352   0.000000
    40  H    0.000015   0.005535   0.000337   0.583532  -0.051082   0.005573
    41  H    0.000541  -0.000571  -0.000352  -0.051082   0.640803  -0.000562
    42  H    0.000000  -0.000010   0.000000   0.005573  -0.000562   0.596482
    43  H    0.000000   0.000000   0.000000   0.000328  -0.000365  -0.029142
    44  H    0.000000   0.000000   0.000000   0.000289   0.000341  -0.005530
    45  H    0.000000   0.000000   0.000000   0.000019   0.000699   0.004907
    46  H    0.000000   0.000000   0.000000   0.000001  -0.000001  -0.000360
    47  H    0.000000   0.000000   0.000000   0.000005   0.000005   0.004153
    48  H    0.000000   0.000000   0.000000   0.000000  -0.000001   0.000002
    49  H    0.000000   0.000000   0.000000   0.000000   0.000000   0.000004
    50  H    0.000000   0.000000   0.000000   0.000000   0.000000   0.000004
              43         44         45         46         47         48
     1  C    0.000000   0.000000   0.000000   0.000000   0.000000   0.000000
     2  C    0.000000   0.000000   0.000000   0.000000   0.000000   0.000000
     3  C    0.000000  -0.000001   0.000000   0.000000   0.000000   0.000000
     4  C    0.000002   0.000005   0.000000   0.000000   0.000000   0.000000
     5  N   -0.000142   0.000045  -0.000017   0.000000   0.000000   0.000000
     6  C    0.004540   0.003096  -0.000672   0.000009  -0.000018  -0.000001
     7  N   -0.031914  -0.003400  -0.006315   0.000039   0.000060   0.000001
     8  C    0.389789  -0.038314  -0.033260  -0.004276  -0.003601   0.000070
     9  C   -0.039807   0.386226   0.389271  -0.040072  -0.041241  -0.005744
    10  C   -0.002624  -0.036061  -0.033709   0.394266   0.392428  -0.035362
    11  C   -0.000010  -0.003337  -0.003352  -0.037568  -0.038276   0.390546
    12  C   -0.005200  -0.000142   0.004692  -0.000021   0.000006   0.000000
    13  O    0.008989   0.000121   0.006073   0.000032  -0.000003   0.000000
    14  N    0.000331   0.000012  -0.000025   0.000000   0.000000   0.000000
    15  C   -0.000012   0.000000   0.000003   0.000000   0.000000   0.000000
    16  F    0.000000   0.000000   0.000000   0.000000   0.000000   0.000000
    17  F   -0.000001   0.000000   0.000001   0.000000   0.000000   0.000000
    18  C    0.000000   0.000000   0.000000   0.000000   0.000000   0.000000
    19  F    0.000000   0.000000   0.000000   0.000000   0.000000   0.000000
    20  O    0.000000   0.000000   0.000000   0.000000   0.000000   0.000000
    21  C    0.000000   0.000000   0.000000   0.000000   0.000000   0.000000
    22  F    0.000000   0.000000   0.000000   0.000000   0.000000   0.000000
    23  F    0.000000   0.000000   0.000000   0.000000   0.000000   0.000000
    24  F    0.000000   0.000000   0.000000   0.000000   0.000000   0.000000
    25  C    0.000000   0.000000   0.000000   0.000000   0.000000   0.000000
    26  F    0.000000   0.000000   0.000000   0.000000   0.000000   0.000000
    27  F    0.000000   0.000000   0.000000   0.000000   0.000000   0.000000
    28  F    0.000000   0.000000   0.000000   0.000000   0.000000   0.000000
    29  C   -0.000018  -0.000001   0.000008   0.000000   0.000000   0.000000
    30  O    0.000000   0.000000   0.000000   0.000000   0.000000   0.000000
    31  H    0.000000   0.000000   0.000000   0.000000   0.000000   0.000000
    32  H    0.000000   0.000000   0.000000   0.000000   0.000000   0.000000
    33  H    0.000000   0.000000   0.000000   0.000000   0.000000   0.000000
    34  H    0.000000   0.000000   0.000000   0.000000   0.000000   0.000000
    35  H    0.000000   0.000000   0.000000   0.000000   0.000000   0.000000
    36  H    0.000000   0.000000   0.000000   0.000000   0.000000   0.000000
    37  H    0.000000   0.000000   0.000000   0.000000   0.000000   0.000000
    38  H    0.000000   0.000000   0.000000   0.000000   0.000000   0.000000
    39  H    0.000000   0.000000   0.000000   0.000000   0.000000   0.000000
    40  H    0.000328   0.000289   0.000019   0.000001   0.000005   0.000000
    41  H   -0.000365   0.000341   0.000699  -0.000001   0.000005  -0.000001
    42  H   -0.029142  -0.005530   0.004907  -0.000360   0.004153   0.000002
    43  H    0.560685   0.004988  -0.005270   0.004670  -0.000466   0.000007
    44  H    0.004988   0.624846  -0.037954   0.005542  -0.005726   0.004680
    45  H   -0.005270  -0.037954   0.590959  -0.005337   0.005299  -0.000429
    46  H    0.004670   0.005542  -0.005337   0.617430  -0.037416   0.005232
    47  H   -0.000466  -0.005726   0.005299  -0.037416   0.629604  -0.004956
    48  H    0.000007   0.004680  -0.000429   0.005232  -0.004956   0.603118
    49  H    0.000000  -0.000491   0.004442  -0.004942   0.005292  -0.031675
    50  H    0.000003  -0.000005  -0.000012  -0.003184  -0.003240  -0.030082
              49         50
     1  C    0.000000   0.000000
     2  C    0.000000   0.000000
     3  C    0.000000   0.000000
     4  C    0.000000   0.000000
     5  N    0.000000   0.000000
     6  C    0.000000   0.000000
     7  N    0.000001   0.000001
     8  C    0.000073  -0.000142
     9  C   -0.005299   0.004420
    10  C   -0.035101  -0.029134
    11  C    0.391693   0.383717
    12  C   -0.000002   0.000000
    13  O   -0.000002   0.000000
    14  N    0.000000   0.000000
    15  C    0.000000   0.000000
    16  F    0.000000   0.000000
    17  F    0.000000   0.000000
    18  C    0.000000   0.000000
    19  F    0.000000   0.000000
    20  O    0.000000   0.000000
    21  C    0.000000   0.000000
    22  F    0.000000   0.000000
    23  F    0.000000   0.000000
    24  F    0.000000   0.000000
    25  C    0.000000   0.000000
    26  F    0.000000   0.000000
    27  F    0.000000   0.000000
    28  F    0.000000   0.000000
    29  C    0.000000   0.000000
    30  O    0.000000   0.000000
    31  H    0.000000   0.000000
    32  H    0.000000   0.000000
    33  H    0.000000   0.000000
    34  H    0.000000   0.000000
    35  H    0.000000   0.000000
    36  H    0.000000   0.000000
    37  H    0.000000   0.000000
    38  H    0.000000   0.000000
    39  H    0.000000   0.000000
    40  H    0.000000   0.000000
    41  H    0.000000   0.000000
    42  H    0.000004   0.000004
    43  H    0.000000   0.000003
    44  H   -0.000491  -0.000005
    45  H    0.004442  -0.000012
    46  H   -0.004942  -0.003184
    47  H    0.005292  -0.003240
    48  H   -0.031675  -0.030082
    49  H    0.596202  -0.029740
    50  H   -0.029740   0.602908
 Mulliken charges:
               1
     1  C   -0.321703
     2  C   -0.186288
     3  C   -0.188543
     4  C   -0.047543
     5  N   -0.517098
     6  C    0.126137
     7  N   -0.518012
     8  C   -0.052929
     9  C   -0.183911
    10  C   -0.183070
    11  C   -0.322242
    12  C    0.809516
    13  O   -0.528990
    14  N   -0.641465
    15  C    0.762292
    16  F   -0.276370
    17  F   -0.269436
    18  C    0.426527
    19  F   -0.248606
    20  O   -0.509855
    21  C    0.985770
    22  F   -0.242811
    23  F   -0.246453
    24  F   -0.241499
    25  C    0.790560
    26  F   -0.240901
    27  F   -0.254148
    28  F   -0.237590
    29  C    0.813879
    30  O   -0.541493
    31  H    0.105539
    32  H    0.112632
    33  H    0.107972
    34  H    0.102457
    35  H    0.097079
    36  H    0.099605
    37  H    0.119659
    38  H    0.121269
    39  H    0.142391
    40  H    0.139394
    41  H    0.132409
    42  H    0.121804
    43  H    0.140637
    44  H    0.100774
    45  H    0.119979
    46  H    0.105956
    47  H    0.098092
    48  H    0.104594
    49  H    0.109544
    50  H    0.104484
 Sum of Mulliken charges =   0.00000
 Mulliken charges with hydrogens summed into heavy atoms:
               1
     1  C    0.004440
     2  C    0.013248
     3  C    0.030721
     4  C    0.216118
     5  N   -0.517098
     6  C    0.397941
     7  N   -0.518012
     8  C    0.209513
     9  C    0.036842
    10  C    0.020978
    11  C   -0.003619
    12  C    0.809516
    13  O   -0.528990
    14  N   -0.641465
    15  C    0.762292
    16  F   -0.276370
    17  F   -0.269436
    18  C    0.426527
    19  F   -0.248606
    20  O   -0.509855
    21  C    0.985770
    22  F   -0.242811
    23  F   -0.246453
    24  F   -0.241499
    25  C    0.790560
    26  F   -0.240901
    27  F   -0.254148
    28  F   -0.237590
    29  C    0.813879
    30  O   -0.541493
 Electronic spatial extent (au):  <R**2>=          15534.0625
 Charge=              0.0000 electrons
 Dipole moment (field-independent basis, Debye):
    X=             -7.5869    Y=              1.8726    Z=             -1.2513  Tot=              7.9141
 Quadrupole moment (field-independent basis, Debye-Ang):
   XX=           -174.1946   YY=           -174.0627   ZZ=           -169.6107
   XY=             -0.3799   XZ=              1.4031   YZ=              0.6102
 Traceless Quadrupole moment (field-independent basis, Debye-Ang):
   XX=             -1.5719   YY=             -1.4400   ZZ=              3.0120
   XY=             -0.3799   XZ=              1.4031   YZ=              0.6102
 Octapole moment (field-independent basis, Debye-Ang**2):
  XXX=           -654.8798  YYY=            154.9654  ZZZ=             64.3499  XYY=           -235.7337
  XXY=             27.5100  XXZ=             10.0829  XZZ=           -203.9486  YZZ=             44.2543
  YYZ=             15.1468  XYZ=             -0.7805
 Hexadecapole moment (field-independent basis, Debye-Ang**3):
 XXXX=         -10905.3802 YYYY=          -6181.0928 ZZZZ=          -1074.5652 XXXY=            250.6089
 XXXZ=            253.8902 YYYX=            248.5236 YYYZ=            211.6636 ZZZX=            262.8587
 ZZZY=            199.6923 XXYY=          -2806.6106 XXZZ=          -1979.6723 YYZZ=          -1204.7829
 XXYZ=             81.7308 YYXZ=             94.1790 ZZXY=             78.7339
 N-N= 3.659437944192D+03 E-N=-1.172410362429D+04  KE= 1.857086870595D+03
 No NMR shielding tensors so no spin-rotation constants.
 Leave Link  601 at Sun Mar  3 18:03:26 2024, MaxMem=  5368709120 cpu:         3.8
 (Enter /home/k0335/k033513/app/g09/l9999.exe)
 1\1\GINC-C24U16N1\SP\RCAM-B3LYP\6-31G(d,p)\C15H20F9N3O3\K033513\03-Mar
 -2024\0\\#p CAM-B3LYP/6-31G(d,p) SCRF=(PCM,Solvent=Generic,Read) NoSym
 m out=wfn\\Title A892693592_0\\0,1\C,0,-0.607243,5.601474,-0.058187\C,
 0,-1.698483,4.630411,0.365262\C,0,-1.212544,3.185539,0.494819\C,0,-0.7
 98362,2.566022,-0.843789\N,0,-0.38142,1.16774,-0.72396\C,0,-1.397272,0
 .197505,-0.490384\N,0,-0.935299,-1.115331,-0.790635\C,0,-1.945753,-2.1
 58124,-0.969907\C,0,-2.639468,-2.559123,0.335199\C,0,-3.645011,-3.6861
 91,0.102495\C,0,-4.342264,-4.085977,1.393022\C,0,0.323641,-1.471769,-0
 .344856\O,0,0.570076,-2.648425,-0.084609\N,0,1.251304,-0.445102,-0.236
 413\C,0,2.568481,-0.837195,0.260387\F,0,2.448531,-1.014353,1.614003\F,
 0,2.856895,-2.080278,-0.240038\C,0,3.876581,-0.01556,0.016185\F,0,3.78
 7484,1.223395,0.584041\O,0,5.065431,-0.503092,0.675119\C,0,5.342906,-1
 .87144,0.56615\F,0,4.518069,-2.574118,1.355948\F,0,6.607343,-2.076944,
 0.985018\F,0,5.25034,-2.283789,-0.703129\C,0,4.055707,0.14116,-1.49908
 2\F,0,4.036513,-1.033489,-2.165312\F,0,5.241496,0.733191,-1.791132\F,0
 ,3.092817,0.898975,-2.070937\C,0,0.896831,0.880928,-0.298744\O,0,1.669
 625,1.792154,-0.024177\H,0,-0.988545,6.62746,-0.035289\H,0,0.252933,5.
 544824,0.616314\H,0,-0.262977,5.399965,-1.076636\H,0,-2.091678,4.95237
 5,1.336994\H,0,-2.530788,4.682581,-0.346163\H,0,-2.024336,2.592461,0.9
 33085\H,0,-0.380274,3.139036,1.207319\H,0,-1.624845,2.611973,-1.562509
 \H,0,0.034472,3.129645,-1.278603\H,0,-2.260292,0.425064,-1.125028\H,0,
 -1.690902,0.238304,0.564712\H,0,-2.67902,-1.794789,-1.699586\H,0,-1.46
 2115,-3.036011,-1.415417\H,0,-3.156108,-1.691662,0.763106\H,0,-1.89466
 5,-2.876596,1.074716\H,0,-3.133663,-4.561124,-0.315463\H,0,-4.396991,-
 3.368955,-0.629329\H,0,-4.890638,-3.24063,1.82082\H,0,-3.619975,-4.438
 805,2.136092\H,0,-5.056548,-4.893312,1.203533\\Version=ES64L-G09RevD.0
 1\HF=-1871.5088928\RMSD=6.784e-09\Dipole=-2.9849052,0.7367415,-0.49229
 38\Quadrupole=-1.1686937,-1.0706245,2.2393183,-0.2824257,1.0431577,0.4
 536816\PG=C01 [X(C15H20F9N3O3)]\\@

 Writing a WFN file to "A892693592/A892693592_0.wfn"


 THE MOST SERIOUS THREAT TO THE SURVIVAL OF MANKIND IS NOT NOW
 IGNORANCE IN THE TRADITIONAL SENSE,
 BUT A MORALLY NEUTRAL, AN INSENSITIVE OR INHIBITED HUMAN INTELLIGENCE.

                     -- MARGO JEFFERSON IN NEWSWEEK, SEPTEMBER 2, 1974
 Job cpu time:       0 days  0 hours 17 minutes 41.8 seconds.
 File lengths (MBytes):  RWF=    378 Int=      0 D2E=      0 Chk=     13 Scr=      1
 Normal termination of Gaussian 09 at Sun Mar  3 18:03:26 2024.
