 Entering Gaussian System, Link 0=g09
 Initial command:
 /home/k0335/k033513/app/g09/l1.exe "/home/k0335/k033513/app/g09/scratch/Gau-260959.inp" -scrdir="/home/k0335/k033513/app/g09/scratch/"
 Default is to use a total of  36 processors:
                               36 via shared-memory
                                1 via Linda
 Entering Link 1 = /home/k0335/k033513/app/g09/l1.exe PID=    260960.
  
 Copyright (c) 1988,1990,1992,1993,1995,1998,2003,2009,2013,
            Gaussian, Inc.  All Rights Reserved.
  
 This is part of the Gaussian(R) 09 program.  It is based on
 the Gaussian(R) 03 system (copyright 2003, Gaussian, Inc.),
 the Gaussian(R) 98 system (copyright 1998, Gaussian, Inc.),
 the Gaussian(R) 94 system (copyright 1995, Gaussian, Inc.),
 the Gaussian 92(TM) system (copyright 1992, Gaussian, Inc.),
 the Gaussian 90(TM) system (copyright 1990, Gaussian, Inc.),
 the Gaussian 88(TM) system (copyright 1988, Gaussian, Inc.),
 the Gaussian 86(TM) system (copyright 1986, Carnegie Mellon
 University), and the Gaussian 82(TM) system (copyright 1983,
 Carnegie Mellon University). Gaussian is a federally registered
 trademark of Gaussian, Inc.
  
 This software contains proprietary and confidential information,
 including trade secrets, belonging to Gaussian, Inc.
  
 This software is provided under written license and may be
 used, copied, transmitted, or stored only in accord with that
 written license.
  
 The following legend is applicable only to US Government
 contracts under FAR:
  
                    RESTRICTED RIGHTS LEGEND
  
 Use, reproduction and disclosure by the US Government is
 subject to restrictions as set forth in subparagraphs (a)
 and (c) of the Commercial Computer Software - Restricted
 Rights clause in FAR 52.227-19.
  
 Gaussian, Inc.
 340 Quinnipiac St., Bldg. 40, Wallingford CT 06492
  
  
 ---------------------------------------------------------------
 Warning -- This program may not be used in any manner that
 competes with the business of Gaussian, Inc. or will provide
 assistance to any competitor of Gaussian, Inc.  The licensee
 of this program is prohibited from giving any competitor of
 Gaussian, Inc. access to this program.  By using this program,
 the user acknowledges that Gaussian, Inc. is engaged in the
 business of creating and licensing software in the field of
 computational chemistry and represents and warrants to the
 licensee that it is not a competitor of Gaussian, Inc. and that
 it will not use this program in any manner prohibited above.
 ---------------------------------------------------------------
  

 Cite this work as:
 Gaussian 09, Revision D.01,
 M. J. Frisch, G. W. Trucks, H. B. Schlegel, G. E. Scuseria, 
 M. A. Robb, J. R. Cheeseman, G. Scalmani, V. Barone, B. Mennucci, 
 G. A. Petersson, H. Nakatsuji, M. Caricato, X. Li, H. P. Hratchian, 
 A. F. Izmaylov, J. Bloino, G. Zheng, J. L. Sonnenberg, M. Hada, 
 M. Ehara, K. Toyota, R. Fukuda, J. Hasegawa, M. Ishida, T. Nakajima, 
 Y. Honda, O. Kitao, H. Nakai, T. Vreven, J. A. Montgomery, Jr., 
 J. E. Peralta, F. Ogliaro, M. Bearpark, J. J. Heyd, E. Brothers, 
 K. N. Kudin, V. N. Staroverov, T. Keith, R. Kobayashi, J. Normand, 
 K. Raghavachari, A. Rendell, J. C. Burant, S. S. Iyengar, J. Tomasi, 
 M. Cossi, N. Rega, J. M. Millam, M. Klene, J. E. Knox, J. B. Cross, 
 V. Bakken, C. Adamo, J. Jaramillo, R. Gomperts, R. E. Stratmann, 
 O. Yazyev, A. J. Austin, R. Cammi, C. Pomelli, J. W. Ochterski, 
 R. L. Martin, K. Morokuma, V. G. Zakrzewski, G. A. Voth, 
 P. Salvador, J. J. Dannenberg, S. Dapprich, A. D. Daniels, 
 O. Farkas, J. B. Foresman, J. V. Ortiz, J. Cioslowski, 
 and D. J. Fox, Gaussian, Inc., Wallingford CT, 2013.
 
 ******************************************
 Gaussian 09:  ES64L-G09RevD.01 24-Apr-2013
                 3-Mar-2024 
 ******************************************
 %nprocshared=24
 Will use up to   24 processors via shared memory.
 %mem=40GB
 %rwf=A892693592/A892693592_p1.rwf
 %nosave
 %chk=A892693592/A892693592_p1.chk
 ----------------------------------------------------------------------
 #p CAM-B3LYP/6-31G(d,p) SCRF=(PCM,Solvent=Generic,Read) NoSymm out=wfn
 ----------------------------------------------------------------------
 1/38=1,40=2/1;
 2/12=2,15=1,17=6,18=5,40=1/2;
 3/5=1,6=6,7=101,11=2,16=1,25=1,30=1,70=2203,72=-2,74=-40/1,2,3;
 4//1;
 5/5=2,38=5/2;
 6/7=2,8=2,9=2,10=2,28=1/1;
 99/5=1,6=100,9=1/99;
 Leave Link    1 at Sun Mar  3 18:02:38 2024, MaxMem=  5368709120 cpu:         1.2
 (Enter /home/k0335/k033513/app/g09/l101.exe)
 -------------------
 Title A892693592_p1
 -------------------
 Symbolic Z-matrix:
 Charge =  1 Multiplicity = 2
 C                    -0.60724   5.60147  -0.05819 
 C                    -1.69848   4.63041   0.36526 
 C                    -1.21254   3.18554   0.49482 
 C                    -0.79836   2.56602  -0.84379 
 N                    -0.38142   1.16774  -0.72396 
 C                    -1.39727   0.19751  -0.49038 
 N                    -0.9353   -1.11533  -0.79064 
 C                    -1.94575  -2.15812  -0.96991 
 C                    -2.63947  -2.55912   0.3352 
 C                    -3.64501  -3.68619   0.1025 
 C                    -4.34226  -4.08598   1.39302 
 C                     0.32364  -1.47177  -0.34486 
 O                     0.57008  -2.64843  -0.08461 
 N                     1.2513   -0.4451   -0.23641 
 C                     2.56848  -0.8372    0.26039 
 F                     2.44853  -1.01435   1.614 
 F                     2.8569   -2.08028  -0.24004 
 C                     3.87658  -0.01556   0.01619 
 F                     3.78748   1.2234    0.58404 
 O                     5.06543  -0.50309   0.67512 
 C                     5.34291  -1.87144   0.56615 
 F                     4.51807  -2.57412   1.35595 
 F                     6.60734  -2.07694   0.98502 
 F                     5.25034  -2.28379  -0.70313 
 C                     4.05571   0.14116  -1.49908 
 F                     4.03651  -1.03349  -2.16531 
 F                     5.2415    0.73319  -1.79113 
 F                     3.09282   0.89898  -2.07094 
 C                     0.89683   0.88093  -0.29874 
 O                     1.66963   1.79215  -0.02418 
 H                    -0.98855   6.62746  -0.03529 
 H                     0.25293   5.54482   0.61631 
 H                    -0.26298   5.39996  -1.07664 
 H                    -2.09168   4.95237   1.33699 
 H                    -2.53079   4.68258  -0.34616 
 H                    -2.02434   2.59246   0.93309 
 H                    -0.38027   3.13904   1.20732 
 H                    -1.62485   2.61197  -1.56251 
 H                     0.03447   3.12965  -1.2786 
 H                    -2.26029   0.42506  -1.12503 
 H                    -1.6909    0.2383    0.56471 
 H                    -2.67902  -1.79479  -1.69959 
 H                    -1.46212  -3.03601  -1.41542 
 H                    -3.15611  -1.69166   0.76311 
 H                    -1.89467  -2.8766    1.07472 
 H                    -3.13366  -4.56112  -0.31546 
 H                    -4.39699  -3.36896  -0.62933 
 H                    -4.89064  -3.24063   1.82082 
 H                    -3.61998  -4.43881   2.13609 
 H                    -5.05655  -4.89331   1.20353 
 
 NAtoms=     50 NQM=       50 NQMF=       0 NMMI=      0 NMMIF=      0
                NMic=       0 NMicF=      0.
                    Isotopes and Nuclear Properties:
 (Nuclear quadrupole moments (NQMom) in fm**2, nuclear magnetic moments (NMagM)
  in nuclear magnetons)

  Atom         1           2           3           4           5           6           7           8           9          10
 IAtWgt=          12          12          12          12          14          12          14          12          12          12
 AtmWgt=  12.0000000  12.0000000  12.0000000  12.0000000  14.0030740  12.0000000  14.0030740  12.0000000  12.0000000  12.0000000
 NucSpn=           0           0           0           0           2           0           2           0           0           0
 AtZEff=   0.0000000   0.0000000   0.0000000   0.0000000   0.0000000   0.0000000   0.0000000   0.0000000   0.0000000   0.0000000
 NQMom=    0.0000000   0.0000000   0.0000000   0.0000000   2.0440000   0.0000000   2.0440000   0.0000000   0.0000000   0.0000000
 NMagM=    0.0000000   0.0000000   0.0000000   0.0000000   0.4037610   0.0000000   0.4037610   0.0000000   0.0000000   0.0000000
 AtZNuc=   6.0000000   6.0000000   6.0000000   6.0000000   7.0000000   6.0000000   7.0000000   6.0000000   6.0000000   6.0000000

  Atom        11          12          13          14          15          16          17          18          19          20
 IAtWgt=          12          12          16          14          12          19          19          12          19          16
 AtmWgt=  12.0000000  12.0000000  15.9949146  14.0030740  12.0000000  18.9984033  18.9984033  12.0000000  18.9984033  15.9949146
 NucSpn=           0           0           0           2           0           1           1           0           1           0
 AtZEff=   0.0000000   0.0000000   0.0000000   0.0000000   0.0000000   0.0000000   0.0000000   0.0000000   0.0000000   0.0000000
 NQMom=    0.0000000   0.0000000   0.0000000   2.0440000   0.0000000   0.0000000   0.0000000   0.0000000   0.0000000   0.0000000
 NMagM=    0.0000000   0.0000000   0.0000000   0.4037610   0.0000000   2.6288670   2.6288670   0.0000000   2.6288670   0.0000000
 AtZNuc=   6.0000000   6.0000000   8.0000000   7.0000000   6.0000000   9.0000000   9.0000000   6.0000000   9.0000000   8.0000000

  Atom        21          22          23          24          25          26          27          28          29          30
 IAtWgt=          12          19          19          19          12          19          19          19          12          16
 AtmWgt=  12.0000000  18.9984033  18.9984033  18.9984033  12.0000000  18.9984033  18.9984033  18.9984033  12.0000000  15.9949146
 NucSpn=           0           1           1           1           0           1           1           1           0           0
 AtZEff=   0.0000000   0.0000000   0.0000000   0.0000000   0.0000000   0.0000000   0.0000000   0.0000000   0.0000000   0.0000000
 NQMom=    0.0000000   0.0000000   0.0000000   0.0000000   0.0000000   0.0000000   0.0000000   0.0000000   0.0000000   0.0000000
 NMagM=    0.0000000   2.6288670   2.6288670   2.6288670   0.0000000   2.6288670   2.6288670   2.6288670   0.0000000   0.0000000
 AtZNuc=   6.0000000   9.0000000   9.0000000   9.0000000   6.0000000   9.0000000   9.0000000   9.0000000   6.0000000   8.0000000

  Atom        31          32          33          34          35          36          37          38          39          40
 IAtWgt=           1           1           1           1           1           1           1           1           1           1
 AtmWgt=   1.0078250   1.0078250   1.0078250   1.0078250   1.0078250   1.0078250   1.0078250   1.0078250   1.0078250   1.0078250
 NucSpn=           1           1           1           1           1           1           1           1           1           1
 AtZEff=   0.0000000   0.0000000   0.0000000   0.0000000   0.0000000   0.0000000   0.0000000   0.0000000   0.0000000   0.0000000
 NQMom=    0.0000000   0.0000000   0.0000000   0.0000000   0.0000000   0.0000000   0.0000000   0.0000000   0.0000000   0.0000000
 NMagM=    2.7928460   2.7928460   2.7928460   2.7928460   2.7928460   2.7928460   2.7928460   2.7928460   2.7928460   2.7928460
 AtZNuc=   1.0000000   1.0000000   1.0000000   1.0000000   1.0000000   1.0000000   1.0000000   1.0000000   1.0000000   1.0000000

  Atom        41          42          43          44          45          46          47          48          49          50
 IAtWgt=           1           1           1           1           1           1           1           1           1           1
 AtmWgt=   1.0078250   1.0078250   1.0078250   1.0078250   1.0078250   1.0078250   1.0078250   1.0078250   1.0078250   1.0078250
 NucSpn=           1           1           1           1           1           1           1           1           1           1
 AtZEff=   0.0000000   0.0000000   0.0000000   0.0000000   0.0000000   0.0000000   0.0000000   0.0000000   0.0000000   0.0000000
 NQMom=    0.0000000   0.0000000   0.0000000   0.0000000   0.0000000   0.0000000   0.0000000   0.0000000   0.0000000   0.0000000
 NMagM=    2.7928460   2.7928460   2.7928460   2.7928460   2.7928460   2.7928460   2.7928460   2.7928460   2.7928460   2.7928460
 AtZNuc=   1.0000000   1.0000000   1.0000000   1.0000000   1.0000000   1.0000000   1.0000000   1.0000000   1.0000000   1.0000000
 Leave Link  101 at Sun Mar  3 18:02:38 2024, MaxMem=  5368709120 cpu:         1.0
 (Enter /home/k0335/k033513/app/g09/l202.exe)
                          Input orientation:                          
 ---------------------------------------------------------------------
 Center     Atomic      Atomic             Coordinates (Angstroms)
 Number     Number       Type             X           Y           Z
 ---------------------------------------------------------------------
      1          6           0       -0.607243    5.601474   -0.058187
      2          6           0       -1.698483    4.630411    0.365262
      3          6           0       -1.212544    3.185539    0.494819
      4          6           0       -0.798362    2.566022   -0.843789
      5          7           0       -0.381420    1.167740   -0.723960
      6          6           0       -1.397272    0.197505   -0.490384
      7          7           0       -0.935299   -1.115331   -0.790635
      8          6           0       -1.945753   -2.158124   -0.969907
      9          6           0       -2.639468   -2.559123    0.335199
     10          6           0       -3.645011   -3.686191    0.102495
     11          6           0       -4.342264   -4.085977    1.393022
     12          6           0        0.323641   -1.471769   -0.344856
     13          8           0        0.570076   -2.648425   -0.084609
     14          7           0        1.251304   -0.445102   -0.236413
     15          6           0        2.568481   -0.837195    0.260387
     16          9           0        2.448531   -1.014353    1.614003
     17          9           0        2.856895   -2.080278   -0.240038
     18          6           0        3.876581   -0.015560    0.016185
     19          9           0        3.787484    1.223395    0.584041
     20          8           0        5.065431   -0.503092    0.675119
     21          6           0        5.342906   -1.871440    0.566150
     22          9           0        4.518069   -2.574118    1.355948
     23          9           0        6.607343   -2.076944    0.985018
     24          9           0        5.250340   -2.283789   -0.703129
     25          6           0        4.055707    0.141160   -1.499082
     26          9           0        4.036513   -1.033489   -2.165312
     27          9           0        5.241496    0.733191   -1.791132
     28          9           0        3.092817    0.898975   -2.070937
     29          6           0        0.896831    0.880928   -0.298744
     30          8           0        1.669625    1.792154   -0.024177
     31          1           0       -0.988545    6.627460   -0.035289
     32          1           0        0.252933    5.544824    0.616314
     33          1           0       -0.262977    5.399965   -1.076636
     34          1           0       -2.091678    4.952375    1.336994
     35          1           0       -2.530788    4.682581   -0.346163
     36          1           0       -2.024336    2.592461    0.933085
     37          1           0       -0.380274    3.139036    1.207319
     38          1           0       -1.624845    2.611973   -1.562509
     39          1           0        0.034472    3.129645   -1.278603
     40          1           0       -2.260292    0.425064   -1.125028
     41          1           0       -1.690902    0.238304    0.564712
     42          1           0       -2.679020   -1.794789   -1.699586
     43          1           0       -1.462115   -3.036011   -1.415417
     44          1           0       -3.156108   -1.691662    0.763106
     45          1           0       -1.894665   -2.876596    1.074716
     46          1           0       -3.133663   -4.561124   -0.315463
     47          1           0       -4.396991   -3.368955   -0.629329
     48          1           0       -4.890638   -3.240630    1.820820
     49          1           0       -3.619975   -4.438805    2.136092
     50          1           0       -5.056548   -4.893312    1.203533
 ---------------------------------------------------------------------
                    Distance matrix (angstroms):
                    1          2          3          4          5
     1  C    0.000000
     2  C    1.520880   0.000000
     3  C    2.551264   1.529894   0.000000
     4  C    3.141284   2.556115   1.532064   0.000000
     5  N    4.489125   3.861496   2.499540   1.464033   0.000000
     6  C    5.478487   4.524767   3.151682   2.468494   1.424033
     7  N    6.764582   5.910338   4.497415   3.684282   2.350243
     8  C    7.926803   6.923007   5.589074   4.863123   3.683612
     9  C    8.419028   7.250914   5.921379   5.571965   4.484429
    10  C    9.773156   8.545401   7.300102   6.934626   5.907174
    11  C   10.483468   9.166313   7.967237   7.862039   6.911689
    12  C    7.139992   6.467600   4.975484   4.220377   2.758231
    13  O    8.333523   7.637421   6.127692   5.444211   3.984624
    14  N    6.328273   5.901194   4.448236   3.692818   2.346220
    15  C    7.186318   6.936332   5.525712   4.912914   3.700084
    16  F    7.476840   7.114804   5.682881   5.422374   4.270389
    17  F    8.428679   8.133339   6.695459   5.942518   4.611994
    18  C    7.187578   7.265552   6.031195   5.409179   4.480914
    19  F    6.236478   6.461537   5.371987   4.987116   4.369637
    20  O    8.365566   8.497023   7.283644   6.790479   5.866625
    21  C    9.572801   9.586218   8.279617   7.706761   6.608245
    22  F    9.752379   9.567247   8.170380   7.715201   6.506344
    23  F   10.587570  10.693898   9.438467   8.930069   7.892489
    24  F    9.844013   9.860718   8.550877   7.754176   6.605317
    25  C    7.323545   7.532586   6.402996   5.465469   4.619824
    26  F    8.368224   8.448298   7.240794   6.170812   5.142085
    27  F    7.804552   8.246312   7.272841   6.382524   5.739762
    28  F    6.313090   6.543335   5.508867   4.407518   3.735894
    29  C    4.960208   4.608165   3.223420   2.451590   1.377315
    30  O    4.438040   4.421710   3.243112   2.713226   2.255299
    31  H    1.094789   2.157002   3.489701   4.145494   5.536372
    32  H    1.094561   2.169609   2.780038   3.479998   4.621429
    33  H    1.093784   2.175307   2.876601   2.893456   4.248545
    34  H    2.138085   1.096598   2.145657   3.481833   4.636375
    35  H    2.151121   1.096166   2.164752   2.780064   4.137224
    36  H    3.470581   2.140524   1.096734   2.158933   2.734008
    37  H    2.777881   2.161234   1.096582   2.170296   2.759683
    38  H    3.497944   2.792099   2.175217   1.096241   2.082085
    39  H    2.830398   2.820944   2.168686   1.095603   2.080785
    40  H    5.537684   4.496836   3.367774   2.607688   2.059753
    41  H    5.506897   4.396640   2.986621   2.863350   2.058949
    42  H    7.854372   6.819695   5.636456   4.825550   3.873937
    43  H    8.785159   7.874053   6.512985   5.670106   4.395172
    44  H    7.769239   6.500120   5.257044   5.125324   4.252815
    45  H    8.649774   7.543008   6.127891   5.874064   4.677799
    46  H   10.475084   9.327778   8.022346   7.518575   6.368798
    47  H    9.754844   8.500648   7.373317   6.944068   6.059321
    48  H   10.003047   8.617528   7.522121   7.587099   6.800197
    49  H   10.709744   9.438149   8.162115   8.118423   7.078240
    50  H   11.468600  10.133144   8.974769   8.829798   7.893567
                    6          7          8          9         10
     6  C    0.000000
     7  N    1.423765   0.000000
     8  C    2.465717   1.463070   0.000000
     9  C    3.134268   2.501246   1.531451   0.000000
    10  C    4.526249   3.840513   2.524384   1.528251   0.000000
    11  C    5.528871   5.020011   3.878571   2.519878   1.520346
    12  C    2.401915   1.382280   2.451922   3.228750   4.566617
    13  O    3.483451   2.261637   2.711742   3.238115   4.344988
    14  N    2.737225   2.353211   3.700491   4.464743   5.881617
    15  C    4.166708   3.668580   4.861768   5.485742   6.837338
    16  F    4.548323   4.152443   5.224417   5.468948   6.823095
    17  F    4.832071   3.951584   4.858415   5.547089   6.706047
    18  C    5.302408   5.001464   6.281921   7.002169   8.369906
    19  F    5.393379   5.446472   6.835161   7.461573   8.920645
    20  O    6.604223   6.207417   7.389313   7.981747   9.291492
    21  C    7.129291   6.467490   7.454275   8.015269   9.181010
    22  F    6.788379   6.039462   6.882125   7.229972   8.333290
    23  F    8.451260   7.808271   8.774040   9.282148  10.415339
    24  F    7.098790   6.295640   7.202133   7.962600   9.041185
    25  C    5.545776   5.195268   6.448586   7.448589   8.747269
    26  F    5.817796   5.159007   6.203330   7.290325   8.437155
    27  F    6.786173   6.524632   7.790421   8.801716  10.103800
    28  F    4.811560   4.682128   5.995441   7.113861   8.434802
    29  C    2.401396   2.753853   4.215042   4.974057   6.453518
    30  O    3.487995   3.978260   5.437836   6.134415   7.633719
    31  H    6.458985   7.779730   8.886858   9.341098  10.651159
    32  H    5.704540   6.910070   8.166133   8.609237  10.033425
    33  H    5.356856   6.556134   7.743890   8.425442   9.766613
    34  H    5.141041   6.533075   7.476783   7.597781   8.863501
    35  H    4.628344   6.029836   6.893952   7.274499   8.454533
    36  H    2.855746   4.231422   5.118165   5.222516   6.537426
    37  H    3.545291   4.732812   5.937250   6.191411   7.646101
    38  H    2.651584   3.868341   4.817467   5.600981   6.820570
    39  H    3.356877   4.381597   5.654828   6.489714   7.867760
    40  H    1.095153   2.059185   2.606887   3.343861   4.508512
    41  H    1.095952   2.059182   2.857074   2.962778   4.408384
    42  H    2.659752   2.080485   1.096414   2.173964   2.785325
    43  H    3.363854   2.087319   1.096846   2.162924   2.737120
    44  H    2.869441   2.770968   2.164689   1.096590   2.157216
    45  H    3.485260   2.738973   2.167786   1.096543   2.159715
    46  H    5.068550   4.114861   2.759318   2.162313   1.096209
    47  H    4.662323   4.133782   2.755118   2.162182   1.096211
    48  H    5.419044   5.194353   4.199086   2.781958   2.168583
    49  H    5.773574   5.178677   4.201399   2.781693   2.168541
    50  H    6.494311   5.935869   4.677835   3.470550   2.159135
                   11         12         13         14         15
    11  C    0.000000
    12  C    5.623609   0.000000
    13  O    5.327385   1.230032   0.000000
    14  N    6.870155   1.387935   2.311222   0.000000
    15  C    7.719834   2.410044   2.719044   1.461336   0.000000
    16  F    7.456447   2.926007   3.013979   2.276277   1.370419
    17  F    7.649680   2.607421   2.361459   2.291667   1.370716
    18  C    9.274340   3.856719   4.227897   2.672151   1.563920
    19  F    9.743546   4.486086   5.078366   3.144716   2.415937
    20  O   10.092432   4.946034   5.038636   3.921966   2.553113
    21  C    9.969474   5.116902   4.879252   4.406785   2.976674
    22  F    8.988470   4.658448   4.203258   4.211897   2.831616
    23  F   11.139864   6.451334   6.157864   5.730790   4.286546
    24  F    9.982975   5.006006   4.735018   4.426159   3.195836
    25  C    9.836609   4.226357   4.683176   3.130928   2.502948
    26  F    9.601215   4.158313   4.353565   3.438639   2.842123
    27  F   11.189802   5.580220   6.014126   4.441527   3.717506
    28  F    9.598395   4.033376   4.784743   2.926293   2.953690
    29  C    7.414872   2.421953   3.550909   1.374006   2.461501
    30  O    8.526646   3.545095   4.575085   2.285903   2.793277
    31  H   11.316591   8.210674   9.406050   7.421490   8.274112
    32  H   10.699133   7.082473   8.229289   6.132137   6.798427
    33  H   10.617104   6.935442   8.151974   6.096214   6.979036
    34  H    9.314509   7.066259   8.177900   6.540940   7.509679
    35  H    9.121065   6.784084   7.964133   6.372550   7.539123
    36  H    7.084198   4.864575   5.935786   4.617828   5.771398
    37  H    8.242127   4.915716   6.005576   4.194336   5.040064
    38  H    7.809101   4.685747   5.888434   4.401871   5.727451
    39  H    8.852039   4.704095   5.924406   3.917353   4.952324
    40  H    5.569980   3.298993   4.305786   3.725336   5.179741
    41  H    5.139574   2.794646   3.723821   3.124967   4.403596
    42  H    4.192869   3.309926   3.727395   4.405676   5.682847
    43  H    4.157525   2.604204   2.459893   3.932620   4.887619
    44  H    2.745269   3.658495   3.939348   4.688095   5.809799
    45  H    2.748575   2.984896   2.733321   4.186686   4.974129
    46  H    2.146020   4.636586   4.174853   6.014634   6.834742
    47  H    2.146397   5.095548   5.048528   6.372326   7.464530
    48  H    1.094686   5.916733   5.813842   7.054831   7.990614
    49  H    1.094688   5.523632   5.068876   6.731107   7.401814
    50  H    1.094485   6.561318   6.193361   7.851689   8.688077
                   16         17         18         19         20
    16  F    0.000000
    17  F    2.177252   0.000000
    18  C    2.364305   2.316996   0.000000
    19  F    2.803771   3.529781   1.365799   0.000000
    20  O    2.826846   2.864029   1.444038   2.149930   0.000000
    21  C    3.195309   2.621794   2.428345   3.463764   1.400444
    22  F    2.604313   2.355960   2.958495   3.943438   2.247728
    23  F    4.338253   3.945457   3.555981   4.359429   2.224981
    24  F    3.851065   2.446313   2.747633   4.012118   2.259345
    25  C    3.689109   2.820838   1.533845   2.362748   2.482288
    26  F    4.099424   2.488764   2.412610   3.565737   3.067253
    27  F    4.738091   4.000978   2.385375   2.827702   2.764379
    28  F    4.201751   3.504825   2.409718   2.763461   3.660303
    29  C    3.107807   3.551625   3.127584   3.041787   4.499016
    30  O    3.341678   4.056099   2.853088   2.275685   4.157964
    31  H    8.539963   9.521241   8.234186   7.238642   9.380836
    32  H    6.988479   8.102847   6.663997   5.582906   7.729223
    33  H    7.465607   8.147854   6.903485   6.050440   8.142890
    34  H    7.502804   8.742632   7.876867   7.002626   9.023547
    35  H    7.816068   8.647234   7.953503   7.263044   9.254013
    36  H    5.786130   6.858362   6.516387   5.981089   7.740400
    37  H    5.041644   6.309940   5.430570   4.629078   6.572978
    38  H    6.311328   6.622095   6.297769   5.985744   7.711706
    39  H    5.600676   6.015645   5.131334   4.603078   6.505717
    40  H    5.634468   5.765895   6.257614   6.335128   7.600541
    41  H    4.450288   5.167775   5.600196   5.566282   6.797786
    42  H    6.154732   5.732202   7.006100   7.492667   8.202696
    43  H    5.343935   4.576985   6.298753   7.049728   7.307180
    44  H    5.709181   6.108480   7.268144   7.532801   8.307475
    45  H    4.756273   4.993999   6.527886   7.024066   7.364519
    46  H    6.889362   6.484371   8.361559   9.064880   9.201849
    47  H    7.578777   7.377743   8.950639   9.462958   9.972572
    48  H    7.672189   8.100483   9.514300   9.837019  10.388939
    49  H    6.987576   7.290987   8.958652   9.451974   9.646790
    50  H    8.458192   8.521716  10.247100  10.771016  11.045710
                   21         22         23         24         25
    21  C    0.000000
    22  F    1.340855   0.000000
    23  F    1.347770   2.179412   0.000000
    24  F    1.337785   2.204611   2.175795   0.000000
    25  C    3.157946   3.967078   4.195424   2.817990   0.000000
    26  F    3.141609   3.873591   4.197921   2.274776   1.350567
    27  F    3.514422   4.622310   4.179642   3.207179   1.357162
    28  F    4.437604   5.083036   5.526920   4.081151   1.352205
    29  C    5.300109   5.271500   6.557972   5.397407   3.459272
    30  O    5.221437   5.392839   6.353696   5.467706   3.254921
    31  H   10.615098  10.813296  11.597637  10.898626   8.346212
    32  H    8.995072   9.200851   9.930046   9.380948   6.937981
    33  H    9.327272   9.610508  10.361268   9.464473   6.817956
    34  H   10.120854  10.016846  11.189646  10.508539   8.305508
    35  H   10.285065  10.258813  11.444154  10.450057   8.083047
    36  H    8.621909   8.347180   9.813864   8.909317   6.992227
    37  H    7.633528   7.527017   8.722537   8.047401   5.999149
    38  H    8.554632   8.552679   9.810441   8.483819   6.194967
    39  H    7.522861   7.718576   8.685343   7.539345   5.014976
    40  H    8.120507   7.816426   9.452369   7.995341   6.333432
    41  H    7.343397   6.862004   8.625422   7.493278   6.106734
    42  H    8.336110   7.857591   9.670742   8.006672   7.010324
    43  H    7.182698   6.607300   8.473373   6.791925   6.367713
    44  H    8.503197   7.747463   9.773570   8.553878   7.777339
    45  H    7.324712   6.426021   8.540002   7.386694   7.151099
    46  H    8.936658   8.080273  10.136548   8.696439   8.671763
    47  H    9.926596   9.167954  11.196909   9.708451   9.193774
    48  H   10.400688   9.443734  11.586902  10.494060  10.123998
    49  H    9.454592   8.385311  10.559422   9.559694   9.649179
    50  H   10.848346   9.852674  12.001085  10.801709  10.755614
                   26         27         28         29         30
    26  F    0.000000
    27  F    2.170980   0.000000
    28  F    2.152646   2.173154   0.000000
    29  C    4.123915   4.596212   2.821941   0.000000
    30  O    4.262731   4.123323   2.648107   1.225941   0.000000
    31  H    9.406293   8.754359   7.322357   6.053650   5.517805
    32  H    8.082520   7.337123   6.072081   4.796234   4.061992
    33  H    7.814100   7.251793   5.701658   4.729901   4.225982
    34  H    9.254806   9.020096   7.411008   5.308814   5.097763
    35  H    8.894504   8.837082   6.993958   5.118924   5.108984
    36  H    7.712423   7.979383   6.170681   3.602772   3.898999
    37  H    6.949289   6.810514   5.275149   2.999712   2.744587
    38  H    6.760454   7.122410   5.044720   3.309451   3.727211
    39  H    5.842454   5.754892   3.867448   2.600099   2.456866
    40  H    6.546703   7.537603   5.456658   3.295145   4.304074
    41  H    6.470995   7.338464   5.501554   2.802657   3.748917
    42  H    6.774575   8.314664   6.380311   4.680655   5.880805
    43  H    5.899775   7.699769   6.054852   4.706803   5.920686
    44  H    7.793755   9.106250   7.334321   4.916509   6.003706
    45  H    7.005262   8.495201   7.001789   4.878302   5.975697
    46  H    8.202291  10.017518   8.465425   6.772082   7.969979
    47  H    8.884685  10.539346   8.740176   6.796716   7.987934
    48  H   10.022711  11.467240   9.798860   7.414485   8.471716
    49  H    9.419133  10.986278   9.552621   7.391179   8.454081
    50  H   10.437007  12.110956  10.520689   8.428606   9.562642
                   31         32         33         34         35
    31  H    0.000000
    32  H    1.771427   0.000000
    33  H    1.765672   1.775733   0.000000
    34  H    2.430221   2.523406   3.061061   0.000000
    35  H    2.501542   3.069027   2.488212   1.760291   0.000000
    36  H    4.276895   3.742024   3.876009   2.395177   2.502313
    37  H    3.752755   2.556962   3.215899   2.496781   3.069291
    38  H    4.342973   4.107911   3.140646   3.755334   2.566641
    39  H    3.850598   3.077584   2.298613   3.831998   3.140321
    40  H    6.424530   5.963264   5.361087   5.156213   4.336617
    41  H    6.455588   5.651576   5.601405   4.793694   4.613751
    42  H    8.749964   8.235876   7.615104   7.422265   6.618916
    43  H    9.773008   8.983321   8.527508   8.472687   7.865242
    44  H    8.633861   8.000615   7.876930   6.753191   6.500191
    45  H    9.611464   8.703024   8.705871   7.835840   7.717817
    46  H   11.395808  10.698945  10.394398   9.712003   9.263395
    47  H   10.578218  10.130591   9.704850   8.855813   8.269832
    48  H   10.772682  10.251408  10.221075   8.671424   8.546460
    49  H   11.580222  10.815821  10.880830   9.548220   9.515650
    50  H   12.280534  11.725617  11.581409  10.283279  10.023909
                   36         37         38         39         40
    36  H    0.000000
    37  H    1.754106   0.000000
    38  H    2.527442   3.081996   0.000000
    39  H    3.069010   2.520300   1.761227   0.000000
    40  H    2.998185   4.042271   2.318998   3.550251   0.000000
    41  H    2.406020   3.247297   3.188062   3.838565   1.792848
    42  H    5.158249   6.170653   4.533170   5.638290   2.330922
    43  H    6.124643   6.795611   5.652242   6.346165   3.563769
    44  H    4.434356   5.589116   5.125868   6.131344   2.974570
    45  H    5.472427   6.204739   6.095256   6.733098   3.984158
    46  H    7.345969   8.318202   7.435387   8.373329   5.126426
    47  H    6.603719   7.865192   6.657861   7.892479   4.382440
    48  H    6.559627   7.837085   7.507681   8.628067   5.388326
    49  H    7.309719   8.293489   8.208146   9.071745   6.011727
    50  H    8.081104   9.294416   8.703843   9.820760   6.444096
                   41         42         43         44         45
    41  H    0.000000
    42  H    3.199514   0.000000
    43  H    3.833327   1.761318   0.000000
    44  H    2.431246   2.510598   3.069666   0.000000
    45  H    3.162946   3.079330   2.532444   1.758524   0.000000
    46  H    5.088298   3.126517   2.515937   3.065555   2.511045
    47  H    4.664865   2.564152   3.056515   2.508381   3.067217
    48  H    4.890716   4.401701   4.719096   2.554732   3.108866
    49  H    5.297727   4.752751   4.386047   3.105971   2.558068
    50  H    6.170020   4.866373   4.819587   3.749161   3.752498
                   46         47         48         49         50
    46  H    0.000000
    47  H    1.765156   0.000000
    48  H    3.065024   2.502676   0.000000
    49  H    2.502316   3.065271   1.774712   0.000000
    50  H    2.472890   2.473472   1.771984   1.772000   0.000000
 Symmetry turned off by external request.
 Stoichiometry    C15H20F9N3O3(1+,2)
 Framework group  C1[X(C15H20F9N3O3)]
 Deg. of freedom   144
 Full point group                 C1      NOp   1
 Rotational constants (GHZ):      0.1813872      0.1115961      0.0787906
 Leave Link  202 at Sun Mar  3 18:02:39 2024, MaxMem=  5368709120 cpu:         0.1
 (Enter /home/k0335/k033513/app/g09/l301.exe)
 Standard basis: 6-31G(d,p) (6D, 7F)
 Ernie: Thresh=  0.10000D-02 Tol=  0.10000D-05 Strict=F.
   550 basis functions,   980 primitive gaussians,   550 cartesian basis functions
   118 alpha electrons      117 beta electrons
       nuclear repulsion energy      3659.4379441917 Hartrees.
 IExCor=20419 DFT=T Ex+Corr=CAM-B3LYP ExCW=0 ScaHFX=  1.000000
 ScaDFX=  1.000000  1.000000  1.000000  0.810000 ScalE2=  1.000000  1.000000
 IRadAn=      0 IRanWt=     -1 IRanGd=            0 ICorTp=0 IEmpDi=  4
  HFx wShort=  0.000000 wLong=  0.330000 cFull=  0.190000 cShort=  0.000000 cLong=  0.460000
  DFx wShort=  0.000000 wLong=  0.330000 cFull=  0.190000 cShort=  0.000000 cLong=  0.460000
 NAtoms=   50 NActive=   50 NUniq=   50 SFac= 1.00D+00 NAtFMM=   60 NAOKFM=F Big=F
 Integral buffers will be    131072 words long.
 Raffenetti 2 integral format.
 Two-electron integral symmetry is turned off.
 Using the following non-standard input for PCM:
 eps=4.9
 --- end of non-standard input.
 ------------------------------------------------------------------------------
 Polarizable Continuum Model (PCM)
 =================================
 Model                : PCM (using non-symmetric T matrix).
 Atomic radii         : UFF (Universal Force Field).
 Polarization charges : Total charges.
 Charge compensation  : None.
 Solution method      : On-the-fly selection.
 Cavity type          : Scaled VdW (van der Waals Surface) (Alpha=1.100).
 Cavity algorithm     : GePol (No added spheres)
                        Default sphere list used, NSphG=   50.
                        Lebedev-Laikov grids with approx.  5.0 points / Ang**2.
                        Smoothing algorithm: Karplus/York (Gamma=1.0000).
                        Polarization charges: spherical gaussians, with
                                              point-specific exponents (IZeta= 3).
                        Self-potential: point-specific (ISelfS= 7).
                        Self-field    : sphere-specific E.n sum rule (ISelfD= 2).
 Solvent              : Generic,
                        Eps                           =   4.900000
                        Eps(infinity)                 =   0.000000
                        RSolv                         =   0.000000 Ang.
                        Molar volume                  =   0.000000 cm**3/mol
                        Thermal expansion coefficient =   0.000000 K**-1
                        Absolute temperature          = 298.150000 K
                        Numeral density               =   0.000000 Ang**-3
                        Hydrogen bond acidity         =   0.000000
                        Hydrogen bond basicity        =   0.000000
                        Surface tension at interface  =   0.000000 (cal/mol)*Ang**-2
                        Carbon aromaticity            =   0.000000
                        Electronegative halogenicity  =   0.000000
 ------------------------------------------------------------------------------
 GePol: Number of generator spheres                  =      50
 GePol: Total number of spheres                      =      50
 GePol: Number of exposed spheres                    =      50 (100.00%)
 GePol: Number of points                             =    3615
 GePol: Average weight of points                     =       0.13
 GePol: Minimum weight of points                     =   0.24D-11
 GePol: Maximum weight of points                     =    0.20577
 GePol: Number of points with low weight             =     220
 GePol: Fraction of low-weight points (<1% of avg)   =       6.09%
 GePol: Cavity surface area                          =    453.884 Ang**2
 GePol: Cavity volume                                =    508.078 Ang**3
 Leave Link  301 at Sun Mar  3 18:02:39 2024, MaxMem=  5368709120 cpu:         0.9
 (Enter /home/k0335/k033513/app/g09/l302.exe)
 NPDir=0 NMtPBC=     1 NCelOv=     1 NCel=       1 NClECP=     1 NCelD=      1
         NCelK=      1 NCelE2=     1 NClLst=     1 CellRange=     0.0.
 One-electron integrals computed using PRISM.
 NBasis=   550 RedAO= T EigKep=  1.36D-03  NBF=   550
 NBsUse=   550 1.00D-06 EigRej= -1.00D+00 NBFU=   550
 Precomputing XC quadrature grid using
 IXCGrd= 4 IRadAn=           0 IRanWt=          -1 IRanGd=           0 AccXCQ= 0.00D+00.
 Generated NRdTot=       0 NPtTot=           0 NUsed=           0 NTot=          32
 NSgBfM=   527   528   528   528   528 MxSgAt=    50 MxSgA2=    50.
 Leave Link  302 at Sun Mar  3 18:02:39 2024, MaxMem=  5368709120 cpu:        11.4
 (Enter /home/k0335/k033513/app/g09/l303.exe)
 DipDrv:  MaxL=1.
 Leave Link  303 at Sun Mar  3 18:02:39 2024, MaxMem=  5368709120 cpu:         0.9
 (Enter /home/k0335/k033513/app/g09/l401.exe)
 ExpMin= 1.61D-01 ExpMax= 7.00D+03 ExpMxC= 1.05D+03 IAcc=1 IRadAn=         1 AccDes= 0.00D+00
 Harris functional with IExCor=20419 and IRadAn=       1 diagonalized for initial guess.
 HarFok:  IExCor=20419 AccDes= 0.00D+00 IRadAn=         1 IDoV= 1 UseB2=F ITyADJ=14
 ICtDFT=  3500011 ScaDFX=  1.000000  1.000000  1.000000  1.000000
 FoFCou: FMM=F IPFlag=           0 FMFlag=      100000 FMFlg1=           0
         NFxFlg=           0 DoJE=T BraDBF=F KetDBF=T FulRan=T
         wScrn=  0.000000 ICntrl=     500 IOpCl=  0 I1Cent=   200000004 NGrid=           0
         NMat0=    1 NMatS0=      1 NMatT0=    0 NMatD0=    1 NMtDS0=    0 NMtDT0=    0
 Symmetry not used in FoFCou.
 Harris En= -1810.07883926063    
 JPrj=0 DoOrth=F DoCkMO=F.
 Initial guess <Sx>= 0.0000 <Sy>= 0.0000 <Sz>= 0.5000 <S**2>= 0.7500 S= 0.5000
 Leave Link  401 at Sun Mar  3 18:02:40 2024, MaxMem=  5368709120 cpu:        13.8
 (Enter /home/k0335/k033513/app/g09/l502.exe)
 UHF open shell SCF:
 Using DIIS extrapolation, IDIIS=  1040.
 Two-electron integral symmetry not used.
 IVT=      942650 IEndB=      942650 NGot=  5368709120 MDV=  5368086161
 LenX=  5368086161 LenY=  5367783111
 Requested convergence on RMS density matrix=1.00D-08 within 128 cycles.
 Requested convergence on MAX density matrix=1.00D-06.
 Requested convergence on             energy=1.00D-06.
 No special actions if energy rises.
 Fock matrices will be formed incrementally for  20 cycles.

 Cycle   1  Pass 1  IDiag  1:
 FoFJK:  IHMeth= 1 ICntrl=       0 DoSepK=T KAlg= 0 I1Cent=   0 FoldK=F
 IRaf=         1 NMat=   1 IRICut=       1 DoRegI=T DoRafI=F ISym2E= 0.
 FoFCou: FMM=F IPFlag=           0 FMFlag=      100000 FMFlg1=           0
         NFxFlg=           0 DoJE=T BraDBF=F KetDBF=F FulRan=T
         wScrn=  0.000000 ICntrl=     500 IOpCl=  0 I1Cent=           0 NGrid=           0
         NMat0=    1 NMatS0=      1 NMatT0=    0 NMatD0=    1 NMtDS0=    0 NMtDT0=    0
 Symmetry not used in FoFCou.
 Inv3:  Mode=1 IEnd=    39204675.
 Iteration    1 A*A^-1 deviation from unit magnitude is 7.77D-15 for    442.
 Iteration    1 A*A^-1 deviation from orthogonality  is 5.01D-15 for   3609    385.
 Iteration    1 A^-1*A deviation from unit magnitude is 7.55D-15 for   1505.
 Iteration    1 A^-1*A deviation from orthogonality  is 1.11D-08 for   1775   1671.
 Iteration    2 A*A^-1 deviation from unit magnitude is 1.17D-14 for    603.
 Iteration    2 A*A^-1 deviation from orthogonality  is 9.21D-15 for   3381    754.
 Iteration    2 A^-1*A deviation from unit magnitude is 1.22D-15 for   2406.
 Iteration    2 A^-1*A deviation from orthogonality  is 6.57D-16 for   3608    395.
 E= -1870.49232132253    
 DIIS: error= 4.83D-02 at cycle   1 NSaved=   1.
 NSaved= 1 IEnMin= 1 EnMin= -1870.49232132253     IErMin= 1 ErrMin= 4.83D-02
 ErrMax= 4.83D-02  0.00D+00 EMaxC= 1.00D-01 BMatC= 6.62D+00 BMatP= 6.62D+00
 IDIUse=3 WtCom= 5.17D-01 WtEn= 4.83D-01
 Coeff-Com:  0.100D+01
 Coeff-En:   0.100D+01
 Coeff:      0.100D+01
 Gap=     0.430 Goal=   None    Shift=    0.000
 Gap=     0.126 Goal=   None    Shift=    0.000
 GapD=    0.126 DampG=1.000 DampE=0.500 DampFc=0.5000 IDamp=-1.
 Damping current iteration by 5.00D-01
 RMSDP=3.17D-03 MaxDP=1.57D-01              OVMax= 5.50D-01

 Cycle   2  Pass 1  IDiag  1:
 RMSU=  1.59D-03    CP:  1.00D+00
 E= -1870.82344797854     Delta-E=       -0.331126656009 Rises=F Damp=T
 DIIS: error= 2.65D-02 at cycle   2 NSaved=   2.
 NSaved= 2 IEnMin= 2 EnMin= -1870.82344797854     IErMin= 2 ErrMin= 2.65D-02
 ErrMax= 2.65D-02  0.00D+00 EMaxC= 1.00D-01 BMatC= 9.39D-01 BMatP= 6.62D+00
 IDIUse=3 WtCom= 7.35D-01 WtEn= 2.65D-01
 Coeff-Com: -0.227D+00 0.123D+01
 Coeff-En:   0.000D+00 0.100D+01
 Coeff:     -0.167D+00 0.117D+01
 Gap=     0.501 Goal=   None    Shift=    0.000
 Gap=     0.105 Goal=   None    Shift=    0.000
 RMSDP=1.18D-03 MaxDP=1.13D-01 DE=-3.31D-01 OVMax= 5.39D-01

 Cycle   3  Pass 1  IDiag  1:
 RMSU=  1.18D-03    CP:  1.00D+00  1.05D+00
 E= -1871.08061867320     Delta-E=       -0.257170694664 Rises=F Damp=F
 DIIS: error= 1.10D-02 at cycle   3 NSaved=   3.
 NSaved= 3 IEnMin= 3 EnMin= -1871.08061867320     IErMin= 3 ErrMin= 1.10D-02
 ErrMax= 1.10D-02  0.00D+00 EMaxC= 1.00D-01 BMatC= 7.28D-01 BMatP= 9.39D-01
 IDIUse=3 WtCom= 8.90D-01 WtEn= 1.10D-01
 Coeff-Com: -0.213D+00 0.675D+00 0.538D+00
 Coeff-En:   0.000D+00 0.000D+00 0.100D+01
 Coeff:     -0.190D+00 0.601D+00 0.589D+00
 Gap=     0.388 Goal=   None    Shift=    0.000
 Gap=     0.100 Goal=   None    Shift=    0.000
 RMSDP=9.12D-04 MaxDP=7.59D-02 DE=-2.57D-01 OVMax= 1.22D-01

 Cycle   4  Pass 1  IDiag  1:
 RMSU=  5.97D-04    CP:  1.00D+00  1.31D+00  5.38D-01
 E= -1871.20451204426     Delta-E=       -0.123893371056 Rises=F Damp=F
 DIIS: error= 4.73D-03 at cycle   4 NSaved=   4.
 NSaved= 4 IEnMin= 4 EnMin= -1871.20451204426     IErMin= 4 ErrMin= 4.73D-03
 ErrMax= 4.73D-03  0.00D+00 EMaxC= 1.00D-01 BMatC= 1.39D-01 BMatP= 7.28D-01
 IDIUse=3 WtCom= 9.53D-01 WtEn= 4.73D-02
 Coeff-Com: -0.808D-01 0.192D+00 0.339D+00 0.550D+00
 Coeff-En:   0.000D+00 0.000D+00 0.134D+00 0.866D+00
 Coeff:     -0.770D-01 0.183D+00 0.329D+00 0.565D+00
 Gap=     0.363 Goal=   None    Shift=    0.000
 Gap=     0.121 Goal=   None    Shift=    0.000
 RMSDP=3.40D-04 MaxDP=3.80D-02 DE=-1.24D-01 OVMax= 5.49D-02

 Cycle   5  Pass 1  IDiag  1:
 RMSU=  2.04D-04    CP:  9.99D-01  1.29D+00  7.14D-01  7.20D-01
 E= -1871.23021500670     Delta-E=       -0.025702962442 Rises=F Damp=F
 DIIS: error= 1.31D-03 at cycle   5 NSaved=   5.
 NSaved= 5 IEnMin= 5 EnMin= -1871.23021500670     IErMin= 5 ErrMin= 1.31D-03
 ErrMax= 1.31D-03  0.00D+00 EMaxC= 1.00D-01 BMatC= 9.29D-03 BMatP= 1.39D-01
 IDIUse=3 WtCom= 9.87D-01 WtEn= 1.31D-02
 Coeff-Com: -0.256D-01 0.496D-01 0.111D+00 0.283D+00 0.582D+00
 Coeff-En:   0.000D+00 0.000D+00 0.000D+00 0.000D+00 0.100D+01
 Coeff:     -0.252D-01 0.490D-01 0.110D+00 0.279D+00 0.588D+00
 Gap=     0.355 Goal=   None    Shift=    0.000
 Gap=     0.117 Goal=   None    Shift=    0.000
 RMSDP=9.61D-05 MaxDP=1.15D-02 DE=-2.57D-02 OVMax= 2.38D-02

 Cycle   6  Pass 1  IDiag  1:
 RMSU=  8.22D-05    CP:  9.99D-01  1.30D+00  7.15D-01  7.91D-01  9.06D-01
 E= -1871.23265861717     Delta-E=       -0.002443610474 Rises=F Damp=F
 DIIS: error= 5.77D-04 at cycle   6 NSaved=   6.
 NSaved= 6 IEnMin= 6 EnMin= -1871.23265861717     IErMin= 6 ErrMin= 5.77D-04
 ErrMax= 5.77D-04  0.00D+00 EMaxC= 1.00D-01 BMatC= 9.11D-04 BMatP= 9.29D-03
 IDIUse=3 WtCom= 9.94D-01 WtEn= 5.77D-03
 Coeff-Com:  0.158D-02-0.621D-02-0.182D-01 0.436D-02 0.204D+00 0.814D+00
 Coeff-En:   0.000D+00 0.000D+00 0.000D+00 0.000D+00 0.000D+00 0.100D+01
 Coeff:      0.157D-02-0.618D-02-0.181D-01 0.434D-02 0.203D+00 0.815D+00
 Gap=     0.355 Goal=   None    Shift=    0.000
 Gap=     0.120 Goal=   None    Shift=    0.000
 RMSDP=6.35D-05 MaxDP=5.18D-03 DE=-2.44D-03 OVMax= 1.78D-02

 Cycle   7  Pass 1  IDiag  1:
 RMSU=  3.79D-05    CP:  9.99D-01  1.30D+00  7.23D-01  8.25D-01  1.10D+00
                    CP:  1.27D+00
 E= -1871.23330264503     Delta-E=       -0.000644027855 Rises=F Damp=F
 DIIS: error= 3.15D-04 at cycle   7 NSaved=   7.
 NSaved= 7 IEnMin= 7 EnMin= -1871.23330264503     IErMin= 7 ErrMin= 3.15D-04
 ErrMax= 3.15D-04  0.00D+00 EMaxC= 1.00D-01 BMatC= 2.82D-04 BMatP= 9.11D-04
 IDIUse=3 WtCom= 9.97D-01 WtEn= 3.15D-03
 Coeff-Com:  0.774D-02-0.157D-01-0.409D-01-0.780D-01-0.506D-01 0.400D+00
 Coeff-Com:  0.777D+00
 Coeff-En:   0.000D+00 0.000D+00 0.000D+00 0.000D+00 0.000D+00 0.000D+00
 Coeff-En:   0.100D+01
 Coeff:      0.772D-02-0.157D-01-0.408D-01-0.778D-01-0.504D-01 0.399D+00
 Coeff:      0.778D+00
 Gap=     0.356 Goal=   None    Shift=    0.000
 Gap=     0.123 Goal=   None    Shift=    0.000
 RMSDP=4.50D-05 MaxDP=4.91D-03 DE=-6.44D-04 OVMax= 1.52D-02

 Cycle   8  Pass 1  IDiag  1:
 RMSU=  2.01D-05    CP:  9.99D-01  1.30D+00  7.27D-01  8.38D-01  1.21D+00
                    CP:  1.64D+00  1.20D+00
 E= -1871.23358138747     Delta-E=       -0.000278742438 Rises=F Damp=F
 DIIS: error= 1.91D-04 at cycle   8 NSaved=   8.
 NSaved= 8 IEnMin= 8 EnMin= -1871.23358138747     IErMin= 8 ErrMin= 1.91D-04
 ErrMax= 1.91D-04  0.00D+00 EMaxC= 1.00D-01 BMatC= 6.88D-05 BMatP= 2.82D-04
 IDIUse=3 WtCom= 9.98D-01 WtEn= 1.91D-03
 Coeff-Com:  0.177D-02-0.298D-02-0.564D-02-0.207D-01-0.492D-01-0.857D-01
 Coeff-Com:  0.279D+00 0.883D+00
 Coeff-En:   0.000D+00 0.000D+00 0.000D+00 0.000D+00 0.000D+00 0.000D+00
 Coeff-En:   0.000D+00 0.100D+01
 Coeff:      0.177D-02-0.298D-02-0.563D-02-0.207D-01-0.491D-01-0.856D-01
 Coeff:      0.279D+00 0.884D+00
 Gap=     0.355 Goal=   None    Shift=    0.000
 Gap=     0.123 Goal=   None    Shift=    0.000
 RMSDP=2.69D-05 MaxDP=2.20D-03 DE=-2.79D-04 OVMax= 9.31D-03

 Cycle   9  Pass 1  IDiag  1:
 RMSU=  1.01D-05    CP:  9.99D-01  1.31D+00  7.29D-01  8.40D-01  1.27D+00
                    CP:  1.82D+00  1.58D+00  1.44D+00
 E= -1871.23367605566     Delta-E=       -0.000094668188 Rises=F Damp=F
 DIIS: error= 1.55D-04 at cycle   9 NSaved=   9.
 NSaved= 9 IEnMin= 9 EnMin= -1871.23367605566     IErMin= 9 ErrMin= 1.55D-04
 ErrMax= 1.55D-04  0.00D+00 EMaxC= 1.00D-01 BMatC= 2.30D-05 BMatP= 6.88D-05
 IDIUse=3 WtCom= 9.98D-01 WtEn= 1.55D-03
 Coeff-Com: -0.154D-02 0.331D-02 0.101D-01 0.135D-01-0.373D-02-0.177D+00
 Coeff-Com: -0.669D-01 0.352D+00 0.870D+00
 Coeff-En:   0.000D+00 0.000D+00 0.000D+00 0.000D+00 0.000D+00 0.000D+00
 Coeff-En:   0.000D+00 0.000D+00 0.100D+01
 Coeff:     -0.154D-02 0.330D-02 0.101D-01 0.135D-01-0.372D-02-0.176D+00
 Coeff:     -0.668D-01 0.352D+00 0.870D+00
 Gap=     0.355 Goal=   None    Shift=    0.000
 Gap=     0.123 Goal=   None    Shift=    0.000
 RMSDP=1.98D-05 MaxDP=2.01D-03 DE=-9.47D-05 OVMax= 6.29D-03

 Cycle  10  Pass 1  IDiag  1:
 RMSU=  6.59D-06    CP:  9.99D-01  1.31D+00  7.31D-01  8.40D-01  1.30D+00
                    CP:  1.92D+00  1.81D+00  2.00D+00  1.50D+00
 E= -1871.23371905079     Delta-E=       -0.000042995129 Rises=F Damp=F
 DIIS: error= 9.68D-05 at cycle  10 NSaved=  10.
 NSaved=10 IEnMin=10 EnMin= -1871.23371905079     IErMin=10 ErrMin= 9.68D-05
 ErrMax= 9.68D-05  0.00D+00 EMaxC= 1.00D-01 BMatC= 1.22D-05 BMatP= 2.30D-05
 IDIUse=1 WtCom= 1.00D+00 WtEn= 0.00D+00
 Coeff-Com: -0.612D-03 0.113D-02 0.331D-02 0.772D-02 0.152D-01-0.406D-01
 Coeff-Com: -0.510D-01-0.194D+00 0.374D+00 0.885D+00
 Coeff:     -0.612D-03 0.113D-02 0.331D-02 0.772D-02 0.152D-01-0.406D-01
 Coeff:     -0.510D-01-0.194D+00 0.374D+00 0.885D+00
 Gap=     0.354 Goal=   None    Shift=    0.000
 Gap=     0.123 Goal=   None    Shift=    0.000
 RMSDP=1.31D-05 MaxDP=1.40D-03 DE=-4.30D-05 OVMax= 4.02D-03

 Cycle  11  Pass 1  IDiag  1:
 RMSU=  3.39D-06    CP:  9.99D-01  1.31D+00  7.31D-01  8.39D-01  1.31D+00
                    CP:  1.97D+00  1.94D+00  2.35D+00  2.12D+00  1.65D+00
 E= -1871.23373967557     Delta-E=       -0.000020624789 Rises=F Damp=F
 DIIS: error= 7.45D-05 at cycle  11 NSaved=  11.
 NSaved=11 IEnMin=11 EnMin= -1871.23373967557     IErMin=11 ErrMin= 7.45D-05
 ErrMax= 7.45D-05  0.00D+00 EMaxC= 1.00D-01 BMatC= 5.28D-06 BMatP= 1.22D-05
 IDIUse=1 WtCom= 1.00D+00 WtEn= 0.00D+00
 Coeff-Com:  0.619D-03-0.136D-02-0.378D-02-0.425D-02 0.818D-02 0.498D-01
 Coeff-Com:  0.515D-01-0.303D+00-0.109D+00 0.978D-01 0.121D+01
 Coeff:      0.619D-03-0.136D-02-0.378D-02-0.425D-02 0.818D-02 0.498D-01
 Coeff:      0.515D-01-0.303D+00-0.109D+00 0.978D-01 0.121D+01
 Gap=     0.353 Goal=   None    Shift=    0.000
 Gap=     0.123 Goal=   None    Shift=    0.000
 RMSDP=1.49D-05 MaxDP=2.04D-03 DE=-2.06D-05 OVMax= 6.66D-03

 Cycle  12  Pass 1  IDiag  1:
 RMSU=  3.76D-06    CP:  9.99D-01  1.31D+00  7.31D-01  8.38D-01  1.32D+00
                    CP:  2.02D+00  2.05D+00  2.72D+00  2.77D+00  2.80D+00
                    CP:  2.18D+00
 E= -1871.23375624787     Delta-E=       -0.000016572295 Rises=F Damp=F
 DIIS: error= 3.96D-05 at cycle  12 NSaved=  12.
 NSaved=12 IEnMin=12 EnMin= -1871.23375624787     IErMin=12 ErrMin= 3.96D-05
 ErrMax= 3.96D-05  0.00D+00 EMaxC= 1.00D-01 BMatC= 7.63D-06 BMatP= 5.28D-06
 IDIUse=1 WtCom= 1.00D+00 WtEn= 0.00D+00
 Coeff-Com:  0.580D-03-0.122D-02-0.313D-02-0.463D-02 0.139D-02 0.325D-01
 Coeff-Com:  0.691D-01-0.177D+00-0.872D-01-0.375D+00 0.106D+01 0.488D+00
 Coeff:      0.580D-03-0.122D-02-0.313D-02-0.463D-02 0.139D-02 0.325D-01
 Coeff:      0.691D-01-0.177D+00-0.872D-01-0.375D+00 0.106D+01 0.488D+00
 Gap=     0.353 Goal=   None    Shift=    0.000
 Gap=     0.123 Goal=   None    Shift=    0.000
 RMSDP=6.78D-06 MaxDP=9.33D-04 DE=-1.66D-05 OVMax= 3.39D-03

 Cycle  13  Pass 1  IDiag  1:
 RMSU=  2.62D-06    CP:  9.99D-01  1.31D+00  7.31D-01  8.37D-01  1.33D+00
                    CP:  2.03D+00  2.08D+00  2.86D+00  3.00D+00  3.00D+00
                    CP:  3.00D+00  1.49D+00
 E= -1871.23376311674     Delta-E=       -0.000006868869 Rises=F Damp=F
 DIIS: error= 3.61D-05 at cycle  13 NSaved=  13.
 NSaved=13 IEnMin=13 EnMin= -1871.23376311674     IErMin=13 ErrMin= 3.61D-05
 ErrMax= 3.61D-05  0.00D+00 EMaxC= 1.00D-01 BMatC= 5.47D-06 BMatP= 5.28D-06
 IDIUse=1 WtCom= 1.00D+00 WtEn= 0.00D+00
 Coeff-Com:  0.481D-05 0.239D-04 0.390D-03-0.655D-04-0.253D-02-0.236D-01
 Coeff-Com:  0.456D-01 0.134D-01 0.148D+00-0.567D+00 0.388D+00-0.862D+00
 Coeff-Com:  0.186D+01
 Coeff:      0.481D-05 0.239D-04 0.390D-03-0.655D-04-0.253D-02-0.236D-01
 Coeff:      0.456D-01 0.134D-01 0.148D+00-0.567D+00 0.388D+00-0.862D+00
 Coeff:      0.186D+01
 Gap=     0.352 Goal=   None    Shift=    0.000
 Gap=     0.123 Goal=   None    Shift=    0.000
 RMSDP=1.33D-05 MaxDP=2.12D-03 DE=-6.87D-06 OVMax= 7.82D-03

 Cycle  14  Pass 1  IDiag  1:
 RMSU=  7.77D-06    CP:  9.99D-01  1.31D+00  7.31D-01  8.36D-01  1.33D+00
                    CP:  2.06D+00  2.12D+00  3.00D+00  3.00D+00  3.00D+00
                    CP:  3.00D+00  3.00D+00  3.00D+00
 E= -1871.23377492379     Delta-E=       -0.000011807056 Rises=F Damp=F
 DIIS: error= 3.80D-05 at cycle  14 NSaved=  14.
 NSaved=14 IEnMin=14 EnMin= -1871.23377492379     IErMin=13 ErrMin= 3.61D-05
 ErrMax= 3.80D-05  0.00D+00 EMaxC= 1.00D-01 BMatC= 6.92D-06 BMatP= 5.28D-06
 IDIUse=1 WtCom= 1.00D+00 WtEn= 0.00D+00
 Coeff-Com: -0.100D-03 0.230D-03 0.638D-03 0.770D-03-0.331D-03-0.282D-01
 Coeff-Com:  0.308D-01-0.754D-02 0.187D+00-0.382D+00 0.313D+00-0.144D+01
 Coeff-Com:  0.183D+01 0.496D+00
 Coeff:     -0.100D-03 0.230D-03 0.638D-03 0.770D-03-0.331D-03-0.282D-01
 Coeff:      0.308D-01-0.754D-02 0.187D+00-0.382D+00 0.313D+00-0.144D+01
 Coeff:      0.183D+01 0.496D+00
 Gap=     0.352 Goal=   None    Shift=    0.000
 Gap=     0.123 Goal=   None    Shift=    0.000
 RMSDP=6.79D-06 MaxDP=1.03D-03 DE=-1.18D-05 OVMax= 4.11D-03

 Cycle  15  Pass 1  IDiag  1:
 RMSU=  4.29D-06    CP:  9.99D-01  1.31D+00  7.31D-01  8.36D-01  1.33D+00
                    CP:  2.07D+00  2.13D+00  3.00D+00  3.00D+00  3.00D+00
                    CP:  3.00D+00  3.00D+00  3.00D+00  1.67D+00
 E= -1871.23378097424     Delta-E=       -0.000006050444 Rises=F Damp=F
 DIIS: error= 3.72D-05 at cycle  15 NSaved=  15.
 NSaved=15 IEnMin=15 EnMin= -1871.23378097424     IErMin=13 ErrMin= 3.61D-05
 ErrMax= 3.72D-05  0.00D+00 EMaxC= 1.00D-01 BMatC= 6.47D-06 BMatP= 5.28D-06
 IDIUse=1 WtCom= 1.00D+00 WtEn= 0.00D+00
 Coeff-Com: -0.593D-04 0.117D-03-0.303D-04 0.458D-03 0.341D-02-0.151D-01
 Coeff-Com:  0.260D-01-0.752D-01 0.144D+00-0.193D+00 0.474D+00-0.131D+01
 Coeff-Com:  0.115D+01-0.106D+01 0.186D+01
 Coeff:     -0.593D-04 0.117D-03-0.303D-04 0.458D-03 0.341D-02-0.151D-01
 Coeff:      0.260D-01-0.752D-01 0.144D+00-0.193D+00 0.474D+00-0.131D+01
 Coeff:      0.115D+01-0.106D+01 0.186D+01
 Gap=     0.351 Goal=   None    Shift=    0.000
 Gap=     0.123 Goal=   None    Shift=    0.000
 RMSDP=1.17D-05 MaxDP=1.75D-03 DE=-6.05D-06 OVMax= 7.24D-03

 Cycle  16  Pass 1  IDiag  1:
 RMSU=  1.39D-06    CP:  9.99D-01  1.31D+00  7.31D-01  8.36D-01  1.33D+00
                    CP:  2.08D+00  2.13D+00  3.00D+00  3.00D+00  3.00D+00
                    CP:  3.00D+00  3.00D+00  3.00D+00  2.77D+00  2.81D+00
 E= -1871.23379120142     Delta-E=       -0.000010227182 Rises=F Damp=F
 DIIS: error= 3.65D-05 at cycle  16 NSaved=  16.
 NSaved=16 IEnMin=16 EnMin= -1871.23379120142     IErMin=13 ErrMin= 3.61D-05
 ErrMax= 3.65D-05  0.00D+00 EMaxC= 1.00D-01 BMatC= 6.37D-06 BMatP= 5.28D-06
 IDIUse=1 WtCom= 1.00D+00 WtEn= 0.00D+00
 Coeff-Com:  0.820D-04-0.186D-03-0.840D-03-0.745D-03 0.409D-02-0.524D-03
 Coeff-Com:  0.341D-01-0.112D+00 0.759D-01-0.185D+00 0.633D+00-0.780D+00
 Coeff-Com:  0.649D+00-0.253D+01 0.169D+01 0.153D+01
 Coeff:      0.820D-04-0.186D-03-0.840D-03-0.745D-03 0.409D-02-0.524D-03
 Coeff:      0.341D-01-0.112D+00 0.759D-01-0.185D+00 0.633D+00-0.780D+00
 Coeff:      0.649D+00-0.253D+01 0.169D+01 0.153D+01
 Gap=     0.350 Goal=   None    Shift=    0.000
 Gap=     0.123 Goal=   None    Shift=    0.000
 RMSDP=2.19D-05 MaxDP=3.22D-03 DE=-1.02D-05 OVMax= 1.35D-02

 Cycle  17  Pass 1  IDiag  1:
 RMSU=  1.97D-05    CP:  9.99D-01  1.31D+00  7.30D-01  8.35D-01  1.32D+00
                    CP:  2.10D+00  2.13D+00  3.00D+00  3.00D+00  3.00D+00
                    CP:  3.00D+00  3.00D+00  3.00D+00  3.00D+00  3.00D+00
                    CP:  3.00D+00
 E= -1871.23380993024     Delta-E=       -0.000018728818 Rises=F Damp=F
 DIIS: error= 3.43D-05 at cycle  17 NSaved=  17.
 NSaved=17 IEnMin=17 EnMin= -1871.23380993024     IErMin=17 ErrMin= 3.43D-05
 ErrMax= 3.43D-05  0.00D+00 EMaxC= 1.00D-01 BMatC= 5.63D-06 BMatP= 5.28D-06
 IDIUse=1 WtCom= 1.00D+00 WtEn= 0.00D+00
 Coeff-Com:  0.176D-03-0.352D-03-0.654D-03-0.139D-02 0.391D-03 0.404D-02
 Coeff-Com:  0.451D-01-0.618D-01 0.198D-01-0.341D+00 0.518D+00-0.872D-01
 Coeff-Com:  0.634D+00-0.216D+01-0.116D+01 0.327D+00 0.326D+01
 Coeff:      0.176D-03-0.352D-03-0.654D-03-0.139D-02 0.391D-03 0.404D-02
 Coeff:      0.451D-01-0.618D-01 0.198D-01-0.341D+00 0.518D+00-0.872D-01
 Coeff:      0.634D+00-0.216D+01-0.116D+01 0.327D+00 0.326D+01
 Gap=     0.345 Goal=   None    Shift=    0.000
 Gap=     0.124 Goal=   None    Shift=    0.000
 RMSDP=8.43D-05 MaxDP=1.21D-02 DE=-1.87D-05 OVMax= 5.21D-02

 Cycle  18  Pass 1  IDiag  1:
 RMSU=  4.53D-05    CP:  9.99D-01  1.31D+00  7.27D-01  8.30D-01  1.31D+00
                    CP:  2.19D+00  2.16D+00  3.00D+00  3.00D+00  3.00D+00
                    CP:  3.00D+00  3.00D+00  3.00D+00  3.00D+00  3.00D+00
                    CP:  3.00D+00  3.00D+00
 E= -1871.23387381057     Delta-E=       -0.000063880335 Rises=F Damp=F
 DIIS: error= 2.88D-05 at cycle  18 NSaved=  18.
 NSaved=18 IEnMin=18 EnMin= -1871.23387381057     IErMin=18 ErrMin= 2.88D-05
 ErrMax= 2.88D-05  0.00D+00 EMaxC= 1.00D-01 BMatC= 1.43D-06 BMatP= 5.28D-06
 IDIUse=1 WtCom= 1.00D+00 WtEn= 0.00D+00
 Coeff-Com:  0.436D-05-0.861D-05 0.556D-03 0.588D-04 0.357D-03-0.425D-02
 Coeff-Com:  0.118D-01 0.151D-01 0.136D-01-0.110D+00-0.574D-01-0.179D+00
 Coeff-Com:  0.575D+00 0.877D+00-0.181D+01-0.155D+01 0.210D+01 0.112D+01
 Coeff:      0.436D-05-0.861D-05 0.556D-03 0.588D-04 0.357D-03-0.425D-02
 Coeff:      0.118D-01 0.151D-01 0.136D-01-0.110D+00-0.574D-01-0.179D+00
 Coeff:      0.575D+00 0.877D+00-0.181D+01-0.155D+01 0.210D+01 0.112D+01
 Gap=     0.341 Goal=   None    Shift=    0.000
 Gap=     0.125 Goal=   None    Shift=    0.000
 RMSDP=6.11D-05 MaxDP=8.56D-03 DE=-6.39D-05 OVMax= 3.79D-02

 Cycle  19  Pass 1  IDiag  1:
 RMSU=  7.54D-06    CP:  9.99D-01  1.31D+00  7.24D-01  8.23D-01  1.30D+00
                    CP:  2.26D+00  2.19D+00  3.00D+00  3.00D+00  3.00D+00
                    CP:  3.00D+00  3.00D+00  3.00D+00  3.00D+00  3.00D+00
                    CP:  3.00D+00  3.00D+00  2.33D+00
 E= -1871.23390717115     Delta-E=       -0.000033360576 Rises=F Damp=F
 DIIS: error= 2.57D-05 at cycle  19 NSaved=  19.
 NSaved=19 IEnMin=19 EnMin= -1871.23390717115     IErMin=19 ErrMin= 2.57D-05
 ErrMax= 2.57D-05  0.00D+00 EMaxC= 1.00D-01 BMatC= 8.99D-07 BMatP= 1.43D-06
 IDIUse=1 WtCom= 1.00D+00 WtEn= 0.00D+00
 Coeff-Com: -0.144D-05-0.202D-04-0.733D-04-0.294D-03 0.477D-02 0.669D-02
 Coeff-Com: -0.123D-01-0.214D-01-0.472D-01 0.239D+00-0.140D+00 0.579D-01
 Coeff-Com: -0.452D+00 0.468D-01 0.561D+00 0.910D+00-0.106D+01-0.474D+00
 Coeff-Com:  0.138D+01
 Coeff:     -0.144D-05-0.202D-04-0.733D-04-0.294D-03 0.477D-02 0.669D-02
 Coeff:     -0.123D-01-0.214D-01-0.472D-01 0.239D+00-0.140D+00 0.579D-01
 Coeff:     -0.452D+00 0.468D-01 0.561D+00 0.910D+00-0.106D+01-0.474D+00
 Coeff:      0.138D+01
 Gap=     0.341 Goal=   None    Shift=    0.000
 Gap=     0.124 Goal=   None    Shift=    0.000
 RMSDP=4.63D-06 MaxDP=4.19D-04 DE=-3.34D-05 OVMax= 1.56D-03

 Cycle  20  Pass 1  IDiag  1:
 RMSU=  2.56D-06    CP:  9.99D-01  1.31D+00  7.25D-01  8.22D-01  1.30D+00
                    CP:  2.26D+00  2.16D+00  3.00D+00  3.00D+00  3.00D+00
                    CP:  3.00D+00  3.00D+00  3.00D+00  3.00D+00  3.00D+00
                    CP:  3.00D+00  3.00D+00  2.25D+00  1.10D+00
 E= -1871.23390544089     Delta-E=        0.000001730262 Rises=F Damp=F
 DIIS: error= 2.83D-05 at cycle  20 NSaved=  20.
 NSaved=20 IEnMin=19 EnMin= -1871.23390717115     IErMin=19 ErrMin= 2.57D-05
 ErrMax= 2.83D-05  0.00D+00 EMaxC= 1.00D-01 BMatC= 4.16D-06 BMatP= 8.99D-07
 IDIUse=1 WtCom= 1.00D+00 WtEn= 0.00D+00
 Coeff-Com: -0.347D-04 0.771D-04 0.454D-03 0.333D-03 0.125D-02-0.738D-02
 Coeff-Com:  0.298D-02 0.288D-02 0.294D-01 0.440D-02-0.953D-01-0.199D+00
 Coeff-Com:  0.222D+00 0.623D+00-0.271D+00-0.113D+01 0.768D-01 0.173D+00
 Coeff-Com:  0.575D+00 0.989D+00
 Coeff:     -0.347D-04 0.771D-04 0.454D-03 0.333D-03 0.125D-02-0.738D-02
 Coeff:      0.298D-02 0.288D-02 0.294D-01 0.440D-02-0.953D-01-0.199D+00
 Coeff:      0.222D+00 0.623D+00-0.271D+00-0.113D+01 0.768D-01 0.173D+00
 Coeff:      0.575D+00 0.989D+00
 Gap=     0.334 Goal=   None    Shift=    0.000
 Gap=     0.127 Goal=   None    Shift=    0.000
 RMSDP=1.07D-04 MaxDP=1.40D-02 DE= 1.73D-06 OVMax= 6.53D-02

 Cycle  21  Pass 1  IDiag  1:
 Restarting incremental Fock formation.
 E= -1871.23392165605     Delta-E=       -0.000016215169 Rises=F Damp=F
 DIIS: error= 5.58D-05 at cycle  21 NSaved=  20.
 NSaved=20 IEnMin=20 EnMin= -1871.23392165605     IErMin=18 ErrMin= 2.57D-05
 ErrMax= 5.58D-05  0.00D+00 EMaxC= 1.00D-01 BMatC= 2.16D-05 BMatP= 8.99D-07
 IDIUse=1 WtCom= 1.00D+00 WtEn= 0.00D+00
 Coeff-Com:  0.728D-05-0.209D-04-0.776D-04 0.106D-02-0.283D-02 0.783D-02
 Coeff-Com: -0.248D-01 0.166D-01-0.462D-01 0.121D+00 0.431D-01-0.568D-01
 Coeff-Com: -0.828D+00 0.305D+00 0.540D+00 0.971D-01-0.545D+00-0.400D+00
 Coeff-Com:  0.127D+01 0.503D+00
 Coeff:      0.728D-05-0.209D-04-0.776D-04 0.106D-02-0.283D-02 0.783D-02
 Coeff:     -0.248D-01 0.166D-01-0.462D-01 0.121D+00 0.431D-01-0.568D-01
 Coeff:     -0.828D+00 0.305D+00 0.540D+00 0.971D-01-0.545D+00-0.400D+00
 Coeff:      0.127D+01 0.503D+00
 Gap=     0.337 Goal=   None    Shift=    0.000
 Gap=     0.125 Goal=   None    Shift=    0.000
 RMSDP=3.97D-05 MaxDP=4.95D-03 DE=-1.62D-05 OVMax= 2.37D-02

 Cycle  22  Pass 1  IDiag  1:
 RMSU=  3.97D-05    CP:  1.00D+00
 E= -1871.23392659146     Delta-E=       -0.000004935405 Rises=F Damp=F
 DIIS: error= 6.15D-06 at cycle  22 NSaved=  20.
 NSaved=20 IEnMin=20 EnMin= -1871.23392659146     IErMin=20 ErrMin= 6.15D-06
 ErrMax= 6.15D-06  0.00D+00 EMaxC= 1.00D-01 BMatC= 2.41D-07 BMatP= 8.99D-07
 IDIUse=1 WtCom= 1.00D+00 WtEn= 0.00D+00
 Coeff-Com:  0.177D-03 0.313D-04-0.493D-03-0.483D-02 0.110D-01-0.277D-02
 Coeff-Com:  0.330D-01-0.122D+00 0.820D-01-0.126D-01 0.209D+00-0.185D+00
 Coeff-Com: -0.480D+00-0.367D+00 0.811D+00 0.183D+00-0.708D+00 0.320D+00
 Coeff-Com:  0.185D+00 0.105D+01
 Coeff:      0.177D-03 0.313D-04-0.493D-03-0.483D-02 0.110D-01-0.277D-02
 Coeff:      0.330D-01-0.122D+00 0.820D-01-0.126D-01 0.209D+00-0.185D+00
 Coeff:     -0.480D+00-0.367D+00 0.811D+00 0.183D+00-0.708D+00 0.320D+00
 Coeff:      0.185D+00 0.105D+01
 Gap=     0.334 Goal=   None    Shift=    0.000
 Gap=     0.126 Goal=   None    Shift=    0.000
 RMSDP=3.50D-05 MaxDP=4.45D-03 DE=-4.94D-06 OVMax= 2.15D-02

 Cycle  23  Pass 1  IDiag  1:
 RMSU=  3.86D-06    CP:  1.00D+00  1.25D-01
 E= -1871.23392739792     Delta-E=       -0.000000806457 Rises=F Damp=F
 DIIS: error= 2.07D-05 at cycle  23 NSaved=  20.
 NSaved=20 IEnMin=20 EnMin= -1871.23392739792     IErMin=19 ErrMin= 6.15D-06
 ErrMax= 2.07D-05  0.00D+00 EMaxC= 1.00D-01 BMatC= 2.94D-06 BMatP= 2.41D-07
 IDIUse=1 WtCom= 1.00D+00 WtEn= 0.00D+00
 Coeff-Com: -0.174D-03 0.420D-03 0.174D-02 0.130D-02-0.517D-02-0.288D-02
 Coeff-Com: -0.688D-02 0.158D-01 0.894D-01-0.656D-01-0.691D-01-0.270D+00
 Coeff-Com:  0.703D-01 0.366D+00 0.153D+00-0.259D+00-0.257D+00-0.319D+00
 Coeff-Com:  0.590D+00 0.966D+00
 Coeff:     -0.174D-03 0.420D-03 0.174D-02 0.130D-02-0.517D-02-0.288D-02
 Coeff:     -0.688D-02 0.158D-01 0.894D-01-0.656D-01-0.691D-01-0.270D+00
 Coeff:      0.703D-01 0.366D+00 0.153D+00-0.259D+00-0.257D+00-0.319D+00
 Coeff:      0.590D+00 0.966D+00
 Gap=     0.336 Goal=   None    Shift=    0.000
 Gap=     0.125 Goal=   None    Shift=    0.000
 RMSDP=1.69D-05 MaxDP=2.11D-03 DE=-8.06D-07 OVMax= 1.01D-02

 Cycle  24  Pass 1  IDiag  1:
 RMSU=  6.30D-07    CP:  1.00D+00  5.51D-01  1.08D+00
 E= -1871.23392840845     Delta-E=       -0.000001010535 Rises=F Damp=F
 DIIS: error= 5.62D-06 at cycle  24 NSaved=  20.
 NSaved=20 IEnMin=20 EnMin= -1871.23392840845     IErMin=20 ErrMin= 5.62D-06
 ErrMax= 5.62D-06  0.00D+00 EMaxC= 1.00D-01 BMatC= 1.74D-07 BMatP= 2.41D-07
 IDIUse=1 WtCom= 1.00D+00 WtEn= 0.00D+00
 Coeff-Com:  0.584D-03 0.989D-03-0.329D-02-0.165D-02-0.412D-02 0.368D-01
 Coeff-Com: -0.322D-01-0.733D-02-0.410D-01 0.162D+00 0.601D-01-0.113D+00
 Coeff-Com: -0.146D+00 0.999D-01 0.193D+00-0.168D+00-0.744D-01-0.351D+00
 Coeff-Com:  0.170D+00 0.122D+01
 Coeff:      0.584D-03 0.989D-03-0.329D-02-0.165D-02-0.412D-02 0.368D-01
 Coeff:     -0.322D-01-0.733D-02-0.410D-01 0.162D+00 0.601D-01-0.113D+00
 Coeff:     -0.146D+00 0.999D-01 0.193D+00-0.168D+00-0.744D-01-0.351D+00
 Coeff:      0.170D+00 0.122D+01
 Gap=     0.335 Goal=   None    Shift=    0.000
 Gap=     0.125 Goal=   None    Shift=    0.000
 RMSDP=8.46D-06 MaxDP=1.06D-03 DE=-1.01D-06 OVMax= 5.15D-03

 Cycle  25  Pass 1  IDiag  1:
 RMSU=  2.34D-07    CP:  1.00D+00  3.41D-01  1.37D+00  1.69D+00
 E= -1871.23392860030     Delta-E=       -0.000000191852 Rises=F Damp=F
 DIIS: error= 2.64D-06 at cycle  25 NSaved=  20.
 NSaved=20 IEnMin=20 EnMin= -1871.23392860030     IErMin=20 ErrMin= 2.64D-06
 ErrMax= 2.64D-06  0.00D+00 EMaxC= 1.00D-01 BMatC= 3.05D-08 BMatP= 1.74D-07
 IDIUse=1 WtCom= 1.00D+00 WtEn= 0.00D+00
 Coeff-Com: -0.725D-03-0.911D-03 0.228D-02 0.182D-02 0.103D-01-0.178D-01
 Coeff-Com: -0.223D-01-0.215D-02 0.658D-01 0.997D-01-0.306D-01-0.160D+00
 Coeff-Com: -0.197D-01 0.116D+00 0.468D-01 0.664D-01-0.243D+00-0.301D+00
 Coeff-Com:  0.266D+00 0.112D+01
 Coeff:     -0.725D-03-0.911D-03 0.228D-02 0.182D-02 0.103D-01-0.178D-01
 Coeff:     -0.223D-01-0.215D-02 0.658D-01 0.997D-01-0.306D-01-0.160D+00
 Coeff:     -0.197D-01 0.116D+00 0.468D-01 0.664D-01-0.243D+00-0.301D+00
 Coeff:      0.266D+00 0.112D+01
 Gap=     0.335 Goal=   None    Shift=    0.000
 Gap=     0.125 Goal=   None    Shift=    0.000
 RMSDP=5.35D-07 MaxDP=5.75D-05 DE=-1.92D-07 OVMax= 1.56D-04

 Cycle  26  Pass 1  IDiag  1:
 RMSU=  8.85D-08    CP:  1.00D+00  3.48D-01  1.44D+00  2.22D+00  1.60D+00
 E= -1871.23392861941     Delta-E=       -0.000000019108 Rises=F Damp=F
 DIIS: error= 1.33D-06 at cycle  26 NSaved=  20.
 NSaved=20 IEnMin=20 EnMin= -1871.23392861941     IErMin=20 ErrMin= 1.33D-06
 ErrMax= 1.33D-06  0.00D+00 EMaxC= 1.00D-01 BMatC= 8.93D-09 BMatP= 3.05D-08
 IDIUse=1 WtCom= 1.00D+00 WtEn= 0.00D+00
 Coeff-Com:  0.544D-03-0.815D-03-0.206D-03-0.477D-02 0.594D-02 0.172D-01
 Coeff-Com: -0.117D-01-0.362D-01-0.171D-01 0.410D-01 0.193D-01-0.293D-01
 Coeff-Com: -0.270D-01 0.618D-01 0.261D-01 0.562D-01-0.137D+00-0.300D+00
 Coeff-Com:  0.319D+00 0.102D+01
 Coeff:      0.544D-03-0.815D-03-0.206D-03-0.477D-02 0.594D-02 0.172D-01
 Coeff:     -0.117D-01-0.362D-01-0.171D-01 0.410D-01 0.193D-01-0.293D-01
 Coeff:     -0.270D-01 0.618D-01 0.261D-01 0.562D-01-0.137D+00-0.300D+00
 Coeff:      0.319D+00 0.102D+01
 Gap=     0.335 Goal=   None    Shift=    0.000
 Gap=     0.125 Goal=   None    Shift=    0.000
 RMSDP=1.10D-06 MaxDP=1.34D-04 DE=-1.91D-08 OVMax= 6.62D-04

 Cycle  27  Pass 1  IDiag  1:
 RMSU=  4.82D-08    CP:  1.00D+00  3.75D-01  1.44D+00  2.49D+00  1.95D+00
                    CP:  1.52D+00
 E= -1871.23392862766     Delta-E=       -0.000000008253 Rises=F Damp=F
 DIIS: error= 3.07D-07 at cycle  27 NSaved=  20.
 NSaved=20 IEnMin=20 EnMin= -1871.23392862766     IErMin=20 ErrMin= 3.07D-07
 ErrMax= 3.07D-07  0.00D+00 EMaxC= 1.00D-01 BMatC= 2.57D-10 BMatP= 8.93D-09
 IDIUse=1 WtCom= 1.00D+00 WtEn= 0.00D+00
 Coeff-Com: -0.426D-03 0.373D-03-0.903D-03 0.285D-02 0.454D-02-0.598D-02
 Coeff-Com: -0.197D-01-0.369D-02 0.345D-01 0.833D-02-0.180D-01-0.243D-01
 Coeff-Com:  0.150D-01 0.166D-02 0.532D-01-0.353D-02-0.167D+00-0.934D-01
 Coeff-Com:  0.362D+00 0.854D+00
 Coeff:     -0.426D-03 0.373D-03-0.903D-03 0.285D-02 0.454D-02-0.598D-02
 Coeff:     -0.197D-01-0.369D-02 0.345D-01 0.833D-02-0.180D-01-0.243D-01
 Coeff:      0.150D-01 0.166D-02 0.532D-01-0.353D-02-0.167D+00-0.934D-01
 Coeff:      0.362D+00 0.854D+00
 Gap=     0.335 Goal=   None    Shift=    0.000
 Gap=     0.125 Goal=   None    Shift=    0.000
 RMSDP=9.46D-07 MaxDP=1.18D-04 DE=-8.25D-09 OVMax= 5.70D-04

 Cycle  28  Pass 1  IDiag  1:
 RMSU=  2.09D-08    CP:  1.00D+00  3.98D-01  1.44D+00  2.60D+00  2.10D+00
                    CP:  1.87D+00  1.34D+00
 E= -1871.23392862343     Delta-E=        0.000000004233 Rises=F Damp=F
 DIIS: error= 1.20D-06 at cycle  28 NSaved=  20.
 NSaved=20 IEnMin=19 EnMin= -1871.23392862766     IErMin=19 ErrMin= 3.07D-07
 ErrMax= 1.20D-06  0.00D+00 EMaxC= 1.00D-01 BMatC= 9.13D-09 BMatP= 2.57D-10
 IDIUse=1 WtCom= 1.00D+00 WtEn= 0.00D+00
 Coeff-Com:  0.409D-03-0.399D-03 0.539D-03-0.293D-02 0.216D-02 0.434D-03
 Coeff-Com:  0.173D-02-0.176D-02 0.126D-02 0.520D-02-0.588D-02-0.144D-01
 Coeff-Com:  0.521D-03 0.141D-01 0.487D-01-0.885D-02-0.122D+00-0.879D-01
 Coeff-Com:  0.342D+00 0.827D+00
 Coeff:      0.409D-03-0.399D-03 0.539D-03-0.293D-02 0.216D-02 0.434D-03
 Coeff:      0.173D-02-0.176D-02 0.126D-02 0.520D-02-0.588D-02-0.144D-01
 Coeff:      0.521D-03 0.141D-01 0.487D-01-0.885D-02-0.122D+00-0.879D-01
 Coeff:      0.342D+00 0.827D+00
 Gap=     0.335 Goal=   None    Shift=    0.000
 Gap=     0.125 Goal=   None    Shift=    0.000
 RMSDP=8.20D-07 MaxDP=1.04D-04 DE= 4.23D-09 OVMax= 4.93D-04

 Cycle  29  Pass 1  IDiag  1:
 RMSU=  1.13D-08    CP:  1.00D+00  3.78D-01  1.45D+00  2.59D+00  2.14D+00
                    CP:  2.01D+00  1.53D+00  1.20D+00
 E= -1871.23392862803     Delta-E=       -0.000000004598 Rises=F Damp=F
 DIIS: error= 1.08D-07 at cycle  29 NSaved=  20.
 NSaved=20 IEnMin=20 EnMin= -1871.23392862803     IErMin=20 ErrMin= 1.08D-07
 ErrMax= 1.08D-07  0.00D+00 EMaxC= 1.00D-01 BMatC= 6.90D-11 BMatP= 2.57D-10
 IDIUse=1 WtCom= 1.00D+00 WtEn= 0.00D+00
 Coeff-Com:  0.249D-04-0.424D-03-0.557D-03 0.137D-02 0.555D-02-0.238D-02
 Coeff-Com: -0.698D-02 0.618D-03 0.493D-02 0.232D-02-0.791D-02-0.543D-05
 Coeff-Com: -0.592D-02 0.146D-01 0.235D-01-0.212D-01-0.881D-01-0.389D-01
 Coeff-Com:  0.191D+00 0.928D+00
 Coeff:      0.249D-04-0.424D-03-0.557D-03 0.137D-02 0.555D-02-0.238D-02
 Coeff:     -0.698D-02 0.618D-03 0.493D-02 0.232D-02-0.791D-02-0.543D-05
 Coeff:     -0.592D-02 0.146D-01 0.235D-01-0.212D-01-0.881D-01-0.389D-01
 Coeff:      0.191D+00 0.928D+00
 Gap=     0.335 Goal=   None    Shift=    0.000
 Gap=     0.125 Goal=   None    Shift=    0.000
 RMSDP=2.54D-07 MaxDP=3.18D-05 DE=-4.60D-09 OVMax= 1.54D-04

 Cycle  30  Pass 1  IDiag  1:
 RMSU=  5.20D-09    CP:  1.00D+00  3.71D-01  1.45D+00  2.60D+00  2.17D+00
                    CP:  2.06D+00  1.62D+00  1.41D+00  1.42D+00
 E= -1871.23392862801     Delta-E=        0.000000000020 Rises=F Damp=F
 DIIS: error= 1.93D-07 at cycle  30 NSaved=  20.
 NSaved=20 IEnMin=19 EnMin= -1871.23392862803     IErMin=19 ErrMin= 1.08D-07
 ErrMax= 1.93D-07  0.00D+00 EMaxC= 1.00D-01 BMatC= 2.33D-10 BMatP= 6.90D-11
 IDIUse=1 WtCom= 1.00D+00 WtEn= 0.00D+00
 Coeff-Com: -0.169D-03 0.814D-03-0.787D-03-0.105D-03-0.322D-03 0.201D-02
 Coeff-Com: -0.685D-03-0.157D-02 0.107D-02 0.284D-02-0.102D-02-0.270D-02
 Coeff-Com: -0.814D-02 0.689D-02 0.205D-01-0.545D-03-0.748D-01-0.109D+00
 Coeff-Com:  0.189D+00 0.976D+00
 Coeff:     -0.169D-03 0.814D-03-0.787D-03-0.105D-03-0.322D-03 0.201D-02
 Coeff:     -0.685D-03-0.157D-02 0.107D-02 0.284D-02-0.102D-02-0.270D-02
 Coeff:     -0.814D-02 0.689D-02 0.205D-01-0.545D-03-0.748D-01-0.109D+00
 Coeff:      0.189D+00 0.976D+00
 Gap=     0.335 Goal=   None    Shift=    0.000
 Gap=     0.125 Goal=   None    Shift=    0.000
 RMSDP=2.91D-07 MaxDP=3.67D-05 DE= 2.00D-11 OVMax= 1.77D-04

 Cycle  31  Pass 1  IDiag  1:
 RMSU=  2.91D-09    CP:  1.00D+00  3.79D-01  1.45D+00  2.60D+00  2.17D+00
                    CP:  2.09D+00  1.68D+00  1.53D+00  1.57D+00  1.21D+00
 E= -1871.23392862815     Delta-E=       -0.000000000137 Rises=F Damp=F
 DIIS: error= 1.03D-07 at cycle  31 NSaved=  20.
 NSaved=20 IEnMin=20 EnMin= -1871.23392862815     IErMin=20 ErrMin= 1.03D-07
 ErrMax= 1.03D-07  0.00D+00 EMaxC= 1.00D-01 BMatC= 6.43D-11 BMatP= 6.90D-11
 IDIUse=1 WtCom= 1.00D+00 WtEn= 0.00D+00
 Coeff-Com:  0.152D-03-0.282D-03-0.668D-03 0.677D-03 0.941D-03-0.723D-03
 Coeff-Com: -0.101D-02 0.344D-03 0.197D-02 0.389D-03-0.696D-03-0.531D-02
 Coeff-Com: -0.253D-02 0.114D-01 0.169D-01-0.186D-01-0.820D-01-0.115D+00
 Coeff-Com:  0.299D+00 0.894D+00
 Coeff:      0.152D-03-0.282D-03-0.668D-03 0.677D-03 0.941D-03-0.723D-03
 Coeff:     -0.101D-02 0.344D-03 0.197D-02 0.389D-03-0.696D-03-0.531D-02
 Coeff:     -0.253D-02 0.114D-01 0.169D-01-0.186D-01-0.820D-01-0.115D+00
 Coeff:      0.299D+00 0.894D+00
 Gap=     0.335 Goal=   None    Shift=    0.000
 Gap=     0.125 Goal=   None    Shift=    0.000
 RMSDP=7.71D-08 MaxDP=9.60D-06 DE=-1.37D-10 OVMax= 4.68D-05

 Cycle  32  Pass 1  IDiag  1:
 RMSU=  9.53D-10    CP:  1.00D+00  3.77D-01  1.45D+00  2.60D+00  2.17D+00
                    CP:  2.10D+00  1.69D+00  1.58D+00  1.69D+00  1.40D+00
                    CP:  1.22D+00
 E= -1871.23392862808     Delta-E=        0.000000000065 Rises=F Damp=F
 DIIS: error= 1.36D-08 at cycle  32 NSaved=  20.
 NSaved=20 IEnMin=19 EnMin= -1871.23392862815     IErMin=20 ErrMin= 1.36D-08
 ErrMax= 1.36D-08  0.00D+00 EMaxC= 1.00D-01 BMatC= 1.06D-12 BMatP= 6.43D-11
 IDIUse=1 WtCom= 1.00D+00 WtEn= 0.00D+00
 Coeff-Com:  0.593D-04-0.214D-03-0.632D-04 0.124D-03 0.187D-03-0.651D-04
 Coeff-Com: -0.357D-03-0.431D-04 0.186D-03 0.823D-03 0.418D-03-0.289D-02
 Coeff-Com: -0.118D-02 0.714D-02 0.108D-01-0.679D-02-0.733D-01-0.805D-01
 Coeff-Com:  0.226D+00 0.920D+00
 Coeff:      0.593D-04-0.214D-03-0.632D-04 0.124D-03 0.187D-03-0.651D-04
 Coeff:     -0.357D-03-0.431D-04 0.186D-03 0.823D-03 0.418D-03-0.289D-02
 Coeff:     -0.118D-02 0.714D-02 0.108D-01-0.679D-02-0.733D-01-0.805D-01
 Coeff:      0.226D+00 0.920D+00
 Gap=     0.335 Goal=   None    Shift=    0.000
 Gap=     0.125 Goal=   None    Shift=    0.000
 RMSDP=1.64D-08 MaxDP=2.02D-06 DE= 6.46D-11 OVMax= 1.01D-05

 Cycle  33  Pass 1  IDiag  1:
 RMSU=  4.35D-10    CP:  1.00D+00  3.76D-01  1.45D+00  2.60D+00  2.17D+00
                    CP:  2.10D+00  1.69D+00  1.59D+00  1.72D+00  1.49D+00
                    CP:  1.36D+00  1.42D+00
 E= -1871.23392862812     Delta-E=       -0.000000000042 Rises=F Damp=F
 DIIS: error= 4.18D-09 at cycle  33 NSaved=  20.
 NSaved=20 IEnMin=18 EnMin= -1871.23392862815     IErMin=20 ErrMin= 4.18D-09
 ErrMax= 4.18D-09  0.00D+00 EMaxC= 1.00D-01 BMatC= 8.75D-14 BMatP= 1.06D-12
 IDIUse=1 WtCom= 1.00D+00 WtEn= 0.00D+00
 Coeff-Com: -0.640D-04-0.378D-04 0.777D-04 0.152D-03 0.903D-04-0.253D-03
 Coeff-Com: -0.398D-03-0.223D-04 0.530D-03 0.135D-02-0.746D-03-0.316D-02
 Coeff-Com: -0.912D-03 0.934D-02 0.177D-01-0.760D-02-0.975D-01-0.139D+00
 Coeff-Com:  0.297D+00 0.923D+00
 Coeff:     -0.640D-04-0.378D-04 0.777D-04 0.152D-03 0.903D-04-0.253D-03
 Coeff:     -0.398D-03-0.223D-04 0.530D-03 0.135D-02-0.746D-03-0.316D-02
 Coeff:     -0.912D-03 0.934D-02 0.177D-01-0.760D-02-0.975D-01-0.139D+00
 Coeff:      0.297D+00 0.923D+00
 Gap=     0.335 Goal=   None    Shift=    0.000
 Gap=     0.125 Goal=   None    Shift=    0.000
 RMSDP=7.79D-09 MaxDP=1.01D-06 DE=-4.18D-11 OVMax= 4.67D-06

 Cycle  34  Pass 1  IDiag  1:
 RMSU=  2.31D-10    CP:  1.00D+00  3.77D-01  1.45D+00  2.60D+00  2.17D+00
                    CP:  2.10D+00  1.69D+00  1.60D+00  1.73D+00  1.53D+00
                    CP:  1.45D+00  1.74D+00  1.28D+00
 E= -1871.23392862814     Delta-E=       -0.000000000019 Rises=F Damp=F
 DIIS: error= 6.75D-09 at cycle  34 NSaved=  20.
 NSaved=20 IEnMin=17 EnMin= -1871.23392862815     IErMin=19 ErrMin= 4.18D-09
 ErrMax= 6.75D-09  0.00D+00 EMaxC= 1.00D-01 BMatC= 2.67D-13 BMatP= 8.75D-14
 IDIUse=1 WtCom= 1.00D+00 WtEn= 0.00D+00
 Coeff-Com:  0.166D-04-0.128D-05-0.104D-04 0.481D-04 0.144D-05-0.173D-03
 Coeff-Com:  0.373D-04-0.674D-04 0.452D-03 0.272D-03-0.100D-02-0.199D-02
 Coeff-Com:  0.180D-02 0.843D-02 0.948D-02-0.275D-01-0.957D-01-0.249D-01
 Coeff-Com:  0.350D+00 0.781D+00
 Coeff:      0.166D-04-0.128D-05-0.104D-04 0.481D-04 0.144D-05-0.173D-03
 Coeff:      0.373D-04-0.674D-04 0.452D-03 0.272D-03-0.100D-02-0.199D-02
 Coeff:      0.180D-02 0.843D-02 0.948D-02-0.275D-01-0.957D-01-0.249D-01
 Coeff:      0.350D+00 0.781D+00
 Gap=     0.335 Goal=   None    Shift=    0.000
 Gap=     0.125 Goal=   None    Shift=    0.000
 RMSDP=6.00D-09 MaxDP=7.37D-07 DE=-1.91D-11 OVMax= 3.67D-06

 Error on total polarization charges =  0.00641
 SCF Done:  E(UCAM-B3LYP) =  -1871.23392863     A.U. after   34 cycles
            NFock= 34  Conv=0.60D-08     -V/T= 2.0078
 <Sx>= 0.0000 <Sy>= 0.0000 <Sz>= 0.5000 <S**2>= 0.7617 S= 0.5058
 <L.S>= 0.000000000000E+00
 KE= 1.856701997765D+03 PE=-1.169204657983D+04 EE= 4.304672709248D+03
 Annihilation of the first spin contaminant:
 S**2 before annihilation     0.7617,   after     0.7501
 Leave Link  502 at Sun Mar  3 18:04:57 2024, MaxMem=  5368709120 cpu:      3196.4
 (Enter /home/k0335/k033513/app/g09/l601.exe)
 Copying SCF densities to generalized density rwf, IOpCl= 1 IROHF=0.

 **********************************************************************

            Population analysis using the SCF density.

 **********************************************************************

 Alpha  occ. eigenvalues --  -24.85922 -24.85558 -24.85291 -24.85097 -24.84771
 Alpha  occ. eigenvalues --  -24.84630 -24.84442 -24.84336 -24.84013 -19.34841
 Alpha  occ. eigenvalues --  -19.31924 -19.26761 -14.62145 -14.57960 -14.53927
 Alpha  occ. eigenvalues --  -10.60843 -10.57021 -10.56585 -10.52049 -10.51612
 Alpha  occ. eigenvalues --  -10.48705 -10.44246 -10.38225 -10.35042 -10.32194
 Alpha  occ. eigenvalues --  -10.29528 -10.29424 -10.28066 -10.27332 -10.26421
 Alpha  occ. eigenvalues --   -1.44738  -1.43542  -1.41677  -1.37035  -1.35413
 Alpha  occ. eigenvalues --   -1.34746  -1.34382  -1.34079  -1.33754  -1.27718
 Alpha  occ. eigenvalues --   -1.22495  -1.21863  -1.18254  -1.13387  -1.10716
 Alpha  occ. eigenvalues --   -0.96060  -0.94693  -0.92558  -0.91282  -0.88666
 Alpha  occ. eigenvalues --   -0.87029  -0.84337  -0.83614  -0.82033  -0.79948
 Alpha  occ. eigenvalues --   -0.77276  -0.77027  -0.75557  -0.74888  -0.74404
 Alpha  occ. eigenvalues --   -0.72207  -0.72165  -0.71313  -0.71049  -0.70756
 Alpha  occ. eigenvalues --   -0.69715  -0.69675  -0.68468  -0.67999  -0.66173
 Alpha  occ. eigenvalues --   -0.65795  -0.64273  -0.62199  -0.61307  -0.61141
 Alpha  occ. eigenvalues --   -0.60476  -0.59753  -0.59404  -0.58788  -0.58696
 Alpha  occ. eigenvalues --   -0.58093  -0.57700  -0.57435  -0.57215  -0.56523
 Alpha  occ. eigenvalues --   -0.55933  -0.55576  -0.55171  -0.54835  -0.54382
 Alpha  occ. eigenvalues --   -0.54072  -0.53712  -0.53333  -0.53148  -0.52639
 Alpha  occ. eigenvalues --   -0.51783  -0.51545  -0.51460  -0.50932  -0.50765
 Alpha  occ. eigenvalues --   -0.50360  -0.50062  -0.49780  -0.49604  -0.48023
 Alpha  occ. eigenvalues --   -0.47263  -0.46746  -0.45760  -0.44928  -0.44242
 Alpha  occ. eigenvalues --   -0.43606  -0.43156  -0.42897  -0.42737  -0.42036
 Alpha  occ. eigenvalues --   -0.41944  -0.40707  -0.38405
 Alpha virt. eigenvalues --   -0.04880   0.00745   0.01819   0.06653   0.07570
 Alpha virt. eigenvalues --    0.08586   0.09707   0.10137   0.11583   0.12083
 Alpha virt. eigenvalues --    0.12510   0.13112   0.14325   0.14484   0.15100
 Alpha virt. eigenvalues --    0.15803   0.16456   0.16917   0.18082   0.18274
[...]
    29   Atom        0.012101      0.003620     -0.015722
    30   Atom        0.027873     -0.002883     -0.024990
    31   Atom       -0.000467      0.000910     -0.000443
    32   Atom       -0.000469      0.000992     -0.000523
    33   Atom       -0.000849      0.001430     -0.000581
    34   Atom       -0.000755      0.000987     -0.000232
    35   Atom       -0.000504      0.001368     -0.000863
    36   Atom       -0.001584      0.004050     -0.002466
    37   Atom       -0.001289      0.001159      0.000130
    38   Atom       -0.001307      0.003760     -0.002453
    39   Atom       -0.001113      0.004217     -0.003104
    40   Atom        0.009097     -0.000169     -0.008928
    41   Atom       -0.010115     -0.007188      0.017304
    42   Atom        0.008584     -0.003650     -0.004934
    43   Atom       -0.004856      0.012153     -0.007297
    44   Atom        0.000946      0.002658     -0.003604
    45   Atom        0.000992     -0.002993      0.002001
    46   Atom       -0.000777      0.002868     -0.002092
    47   Atom        0.002346     -0.000867     -0.001479
    48   Atom        0.000947     -0.000545     -0.000402
    49   Atom       -0.000469      0.000068      0.000401
    50   Atom        0.000282      0.000402     -0.000684
 --------------------------------------------------------
                        XY            XZ            YZ
 --------------------------------------------------------
     1   Atom        0.000281     -0.000816     -0.000006
     2   Atom       -0.000855     -0.001052      0.001151
     3   Atom       -0.003433     -0.012905      0.006669
     4   Atom        0.001336     -0.007741     -0.003516
     5   Atom        0.007050     -0.115360     -0.016372
     6   Atom       -0.003826     -0.007535      0.003856
     7   Atom        0.043975     -0.358531     -0.216349
     8   Atom        0.012767     -0.029273     -0.002171
     9   Atom        0.024997     -0.064268     -0.034823
    10   Atom        0.010360     -0.004486     -0.003818
    11   Atom        0.006034     -0.006187     -0.005241
    12   Atom       -0.013235      0.050828     -0.018759
    13   Atom       -0.083195     -0.498134      0.044337
    14   Atom        0.002636     -0.040799     -0.010050
    15   Atom        0.001016      0.001930      0.000650
    16   Atom       -0.006974      0.014855     -0.009115
    17   Atom       -0.002042      0.016776      0.001525
    18   Atom        0.001330      0.000021     -0.000224
    19   Atom        0.001264      0.000165     -0.001724
    20   Atom        0.000350     -0.000165     -0.000023
    21   Atom       -0.000143      0.000322     -0.000024
    22   Atom       -0.000436      0.000983     -0.000286
    23   Atom       -0.000083      0.000192     -0.000023
    24   Atom       -0.000331     -0.000059      0.000000
    25   Atom        0.000537     -0.000532     -0.000160
    26   Atom       -0.000027     -0.001126     -0.000040
    27   Atom        0.000354     -0.000209     -0.000040
    28   Atom        0.001026     -0.003498     -0.000885
    29   Atom        0.002793      0.008668      0.000709
    30   Atom       -0.006782     -0.021179      0.021336
    31   Atom       -0.000032     -0.000035      0.000056
    32   Atom        0.000400      0.000102      0.000380
    33   Atom        0.000213     -0.000097     -0.000103
    34   Atom       -0.000468     -0.000291      0.000727
    35   Atom       -0.000937      0.000023      0.000018
    36   Atom       -0.000241     -0.001668      0.002280
    37   Atom        0.000692      0.001061      0.002434
    38   Atom       -0.002011      0.001209     -0.002513
    39   Atom        0.002671     -0.000665     -0.001677
    40   Atom       -0.009411      0.007311     -0.002795
    41   Atom       -0.002879     -0.011341      0.004761
    42   Atom        0.002833      0.007951      0.001783
    43   Atom        0.000930      0.002406      0.005078
    44   Atom       -0.000412     -0.007279      0.000491
    45   Atom        0.000782      0.000095     -0.007388
    46   Atom        0.002363     -0.000536      0.000309
    47   Atom        0.002641      0.000810     -0.000098
    48   Atom        0.000654     -0.001884     -0.000190
    49   Atom        0.000961     -0.000498     -0.001788
    50   Atom        0.001617     -0.000132      0.000043
 --------------------------------------------------------


 ---------------------------------------------------------------------------------
              Anisotropic Spin Dipole Couplings in Principal Axis System
 ---------------------------------------------------------------------------------

       Atom             a.u.   MegaHertz   Gauss  10(-4) cm-1        Axes

              Baa    -0.0013    -0.171    -0.061    -0.057  0.7538 -0.0976  0.6498
     1 C(13)  Bbb     0.0003     0.044     0.016     0.015 -0.5938  0.3223  0.7373
              Bcc     0.0009     0.127     0.045     0.042  0.2814  0.9416 -0.1850
 
              Baa    -0.0017    -0.228    -0.082    -0.076  0.7693 -0.0263  0.6384
     2 C(13)  Bbb    -0.0006    -0.085    -0.030    -0.028  0.5203  0.6056 -0.6021
              Bcc     0.0023     0.314     0.112     0.105 -0.3708  0.7954  0.4795
 
              Baa    -0.0123    -1.653    -0.590    -0.551  0.8547 -0.0696  0.5144
     3 C(13)  Bbb    -0.0074    -0.995    -0.355    -0.332  0.2059  0.9551 -0.2129
              Bcc     0.0197     2.649     0.945     0.884 -0.4765  0.2878  0.8307
 
              Baa    -0.0094    -1.268    -0.452    -0.423  0.8298  0.0745  0.5531
     4 C(13)  Bbb     0.0000     0.006     0.002     0.002 -0.2982  0.8969  0.3265
              Bcc     0.0094     1.262     0.450     0.421 -0.4718 -0.4358  0.7665
 
              Baa    -0.1698    -6.548    -2.337    -2.184  0.9526 -0.2004  0.2291
     5 N(14)  Bbb    -0.1550    -5.980    -2.134    -1.995  0.1859  0.9790  0.0832
              Bcc     0.3248    12.528     4.470     4.179 -0.2410 -0.0366  0.9698
 
              Baa    -0.0434    -5.825    -2.078    -1.943  0.9885  0.1353  0.0672
     6 C(13)  Bbb    -0.0171    -2.294    -0.819    -0.765 -0.1311  0.9894 -0.0625
              Bcc     0.0605     8.119     2.897     2.708 -0.0749  0.0530  0.9958
 
              Baa    -0.6475   -24.972    -8.911    -8.330  0.9688 -0.1826  0.1675
     7 N(14)  Bbb    -0.6380   -24.608    -8.781    -8.208  0.1587  0.9764  0.1467
              Bcc     1.2855    49.579    17.691    16.538 -0.1904 -0.1155  0.9749
 
              Baa    -0.0351    -4.705    -1.679    -1.569  0.6839 -0.6782  0.2688
     8 C(13)  Bbb    -0.0141    -1.899    -0.677    -0.633  0.5714  0.7271  0.3806
              Bcc     0.0492     6.603     2.356     2.203 -0.4536 -0.1067  0.8848
 
              Baa    -0.0517    -6.938    -2.476    -2.314  0.7575 -0.5818  0.2962
     9 C(13)  Bbb    -0.0493    -6.618    -2.361    -2.207  0.3717  0.7573  0.5371
              Bcc     0.1010    13.555     4.837     4.522 -0.5367 -0.2967  0.7898
 
              Baa    -0.0076    -1.023    -0.365    -0.341  0.6571 -0.5007  0.5635
    10 C(13)  Bbb    -0.0074    -0.989    -0.353    -0.330 -0.2231  0.5849  0.7798
              Bcc     0.0150     2.012     0.718     0.671  0.7200  0.6381 -0.2726
 
              Baa    -0.0060    -0.799    -0.285    -0.267  0.3498  0.4295  0.8326
    11 C(13)  Bbb    -0.0058    -0.778    -0.277    -0.259 -0.6846  0.7239 -0.0858
              Bcc     0.0117     1.577     0.563     0.526  0.6395  0.5399 -0.5473
 
              Baa    -0.1007   -13.511    -4.821    -4.507 -0.3254  0.0956  0.9407
    12 C(13)  Bbb     0.0290     3.894     1.389     1.299  0.5094  0.8559  0.0893
              Bcc     0.0717     9.617     3.432     3.208  0.7966 -0.5083  0.3272
 
              Baa    -0.3631    26.271     9.374     8.763  0.6348  0.3309  0.6982
    13 O(17)  Bbb    -0.2987    21.617     7.713     7.211 -0.1465  0.9388 -0.3117
              Bcc     0.6618   -47.888   -17.088   -15.974  0.7586 -0.0956 -0.6445
 
              Baa    -0.0424    -1.634    -0.583    -0.545  0.1299  0.9790  0.1571
    14 N(14)  Bbb    -0.0318    -1.228    -0.438    -0.410  0.8960 -0.1838  0.4043
              Bcc     0.0742     2.862     1.021     0.955 -0.4247 -0.0882  0.9010
 
              Baa    -0.0036    -0.486    -0.173    -0.162 -0.2527 -0.1090  0.9614
    15 C(13)  Bbb    -0.0005    -0.068    -0.024    -0.023 -0.2759  0.9605  0.0364
              Bcc     0.0041     0.554     0.198     0.185  0.9274  0.2561  0.2728
 
              Baa    -0.0128    -6.412    -2.288    -2.139 -0.6752  0.2153  0.7056
    16 F(19)  Bbb    -0.0094    -4.744    -1.693    -1.583  0.4256  0.8949  0.1342
              Bcc     0.0222    11.156     3.981     3.721  0.6025 -0.3909  0.6958
 
              Baa    -0.0226   -11.368    -4.056    -3.792  0.1621  0.8777 -0.4510
    17 F(19)  Bbb    -0.0177    -8.904    -3.177    -2.970 -0.2488  0.4787  0.8420
              Bcc     0.0404    20.272     7.234     6.762  0.9549 -0.0242  0.2960
 
              Baa    -0.0018    -0.240    -0.086    -0.080 -0.1581  0.5167  0.8414
    18 C(13)  Bbb    -0.0013    -0.175    -0.063    -0.059 -0.2644  0.7989 -0.5402
              Bcc     0.0031     0.416     0.148     0.139  0.9514  0.3079 -0.0103
 
              Baa    -0.0023    -1.131    -0.404    -0.377 -0.3722  0.5434  0.7525
    19 F(19)  Bbb    -0.0002    -0.093    -0.033    -0.031  0.8423 -0.1428  0.5197
              Bcc     0.0024     1.225     0.437     0.409  0.3898  0.8273 -0.4045
 
              Baa    -0.0008     0.056     0.020     0.019  0.0844 -0.0549  0.9949
    20 O(17)  Bbb    -0.0007     0.051     0.018     0.017 -0.1588  0.9850  0.0678
              Bcc     0.0015    -0.106    -0.038    -0.035  0.9837  0.1638 -0.0744
 
              Baa    -0.0006    -0.082    -0.029    -0.027 -0.1901 -0.0456  0.9807
    21 C(13)  Bbb    -0.0005    -0.072    -0.026    -0.024  0.0756  0.9953  0.0609
              Bcc     0.0012     0.155     0.055     0.052  0.9788 -0.0858  0.1858
 
              Baa    -0.0009    -0.468    -0.167    -0.156  0.1258  0.9733  0.1919
    22 F(19)  Bbb    -0.0007    -0.355    -0.127    -0.118 -0.5282 -0.0980  0.8434
              Bcc     0.0016     0.823     0.294     0.275  0.8397 -0.2074  0.5018
 
              Baa    -0.0003    -0.166    -0.059    -0.055 -0.1909  0.1562  0.9691
    23 F(19)  Bbb    -0.0003    -0.148    -0.053    -0.049  0.1231  0.9833 -0.1342
              Bcc     0.0006     0.313     0.112     0.104  0.9739 -0.0937  0.2069
 
              Baa    -0.0008    -0.420    -0.150    -0.140  0.0391  0.1046  0.9937
    24 F(19)  Bbb    -0.0008    -0.382    -0.136    -0.127  0.1386  0.9843 -0.1091
              Bcc     0.0016     0.801     0.286     0.267  0.9896 -0.1420 -0.0240
 
              Baa    -0.0011    -0.149    -0.053    -0.050  0.1492  0.1831  0.9717
    25 C(13)  Bbb    -0.0008    -0.108    -0.039    -0.036 -0.2371  0.9607 -0.1446
              Bcc     0.0019     0.257     0.092     0.086  0.9600  0.2088 -0.1867
 
              Baa    -0.0012    -0.600    -0.214    -0.200  0.3567  0.1972  0.9132
    26 F(19)  Bbb    -0.0009    -0.477    -0.170    -0.159 -0.0685  0.9804 -0.1849
              Bcc     0.0021     1.076     0.384     0.359  0.9317 -0.0034 -0.3632
 
              Baa    -0.0006    -0.305    -0.109    -0.102  0.1420 -0.0535  0.9884
    27 F(19)  Bbb    -0.0005    -0.243    -0.087    -0.081 -0.2227  0.9712  0.0846
              Bcc     0.0011     0.548     0.196     0.183  0.9645  0.2321 -0.1260
 
              Baa    -0.0028    -1.400    -0.500    -0.467 -0.0911  0.9822  0.1640
    28 F(19)  Bbb    -0.0023    -1.152    -0.411    -0.384  0.6418 -0.0681  0.7639
              Bcc     0.0051     2.552     0.911     0.851  0.7615  0.1748 -0.6242
 
              Baa    -0.0182    -2.442    -0.872    -0.815 -0.2754  0.0040  0.9613
    29 C(13)  Bbb     0.0029     0.391     0.139     0.130 -0.2292  0.9709 -0.0697
              Bcc     0.0153     2.052     0.732     0.684  0.9336  0.2396  0.2664
 
              Baa    -0.0413     2.988     1.066     0.997  0.2225 -0.4431  0.8685
    30 O(17)  Bbb     0.0013    -0.092    -0.033    -0.031  0.4580  0.8339  0.3081
              Bcc     0.0400    -2.896    -1.033    -0.966  0.8607 -0.3292 -0.3884
 
              Baa    -0.0005    -0.262    -0.094    -0.087  0.8142 -0.0045  0.5805
    31 H(1)   Bbb    -0.0004    -0.225    -0.080    -0.075 -0.5801 -0.0479  0.8132
              Bcc     0.0009     0.487     0.174     0.162 -0.0241  0.9988  0.0416
 
              Baa    -0.0006    -0.328    -0.117    -0.109 -0.1569 -0.1903  0.9691
    32 H(1)   Bbb    -0.0006    -0.305    -0.109    -0.102  0.9574 -0.2701  0.1020
              Bcc     0.0012     0.632     0.226     0.211  0.2423  0.9438  0.2246
 
              Baa    -0.0009    -0.477    -0.170    -0.159  0.9593 -0.0756  0.2720
    33 H(1)   Bbb    -0.0006    -0.300    -0.107    -0.100 -0.2662  0.0782  0.9607
              Bcc     0.0015     0.777     0.277     0.259  0.0939  0.9941 -0.0549
 
              Baa    -0.0009    -0.482    -0.172    -0.161  0.9537  0.1321  0.2703
    34 H(1)   Bbb    -0.0006    -0.298    -0.106    -0.100 -0.1818 -0.4630  0.8675
              Bcc     0.0015     0.780     0.278     0.260 -0.2397  0.8764  0.4176
 
              Baa    -0.0009    -0.485    -0.173    -0.162  0.7886  0.3286 -0.5197
    35 H(1)   Bbb    -0.0008    -0.452    -0.161    -0.151  0.4811  0.1965  0.8544
              Bcc     0.0018     0.937     0.334     0.312 -0.3829  0.9238  0.0032
 
              Baa    -0.0041    -2.197    -0.784    -0.733  0.5229 -0.2149  0.8249
    36 H(1)   Bbb    -0.0007    -0.394    -0.141    -0.131  0.8442  0.2645 -0.4662
              Bcc     0.0049     2.591     0.924     0.864 -0.1180  0.9402  0.3197
 
              Baa    -0.0021    -1.130    -0.403    -0.377 -0.5707 -0.4088  0.7122
    37 H(1)   Bbb    -0.0013    -0.707    -0.252    -0.236  0.7827 -0.5330  0.3213
              Bcc     0.0034     1.836     0.655     0.613  0.2483  0.7408  0.6242
 
              Baa    -0.0035    -1.860    -0.664    -0.620 -0.2919  0.2401  0.9258
    38 H(1)   Bbb    -0.0019    -1.040    -0.371    -0.347  0.9000  0.3966  0.1809
              Bcc     0.0054     2.900     1.035     0.967 -0.3237  0.8860 -0.3319
 
              Baa    -0.0035    -1.854    -0.661    -0.618  0.0563  0.1940  0.9794
    39 H(1)   Bbb    -0.0022    -1.185    -0.423    -0.395  0.9254 -0.3783  0.0218
              Bcc     0.0057     3.038     1.084     1.014  0.3747  0.9051 -0.2009
 
              Baa    -0.0116    -6.166    -2.200    -2.057 -0.3612 -0.0703  0.9299
    40 H(1)   Bbb    -0.0057    -3.022    -1.078    -1.008  0.4370  0.8682  0.2353
              Bcc     0.0172     9.188     3.278     3.065  0.8238 -0.4913  0.2828
 
              Baa    -0.0144    -7.676    -2.739    -2.561  0.9357  0.1697  0.3094
    41 H(1)   Bbb    -0.0080    -4.272    -1.524    -1.425 -0.1005  0.9686 -0.2272
              Bcc     0.0224    11.948     4.263     3.985 -0.3382  0.1815  0.9234
 
              Baa    -0.0087    -4.616    -1.647    -1.540 -0.4040 -0.0955  0.9098
    42 H(1)   Bbb    -0.0043    -2.281    -0.814    -0.761 -0.2184  0.9758  0.0055
              Bcc     0.0129     6.897     2.461     2.301  0.8883  0.1965  0.4151
 
              Baa    -0.0095    -5.080    -1.813    -1.695 -0.4198 -0.1899  0.8875
    43 H(1)   Bbb    -0.0040    -2.133    -0.761    -0.711  0.9040 -0.1748  0.3902
              Bcc     0.0135     7.213     2.574     2.406  0.0810  0.9661  0.2450
 
              Baa    -0.0090    -4.779    -1.705    -1.594  0.5918 -0.0131  0.8060
    44 H(1)   Bbb     0.0026     1.364     0.487     0.455  0.1401  0.9863 -0.0868
              Bcc     0.0064     3.415     1.219     1.139  0.7938 -0.1643 -0.5856
 
              Baa    -0.0083    -4.453    -1.589    -1.485 -0.0738  0.8113  0.5800
    45 H(1)   Bbb     0.0010     0.544     0.194     0.182  0.9955  0.0249  0.0918
              Bcc     0.0073     3.908     1.395     1.304 -0.0600 -0.5841  0.8095
 
              Baa    -0.0026    -1.407    -0.502    -0.469  0.5921 -0.2962  0.7494
    46 H(1)   Bbb    -0.0014    -0.743    -0.265    -0.248  0.6747 -0.3262 -0.6621
              Bcc     0.0040     2.150     0.767     0.717  0.4406  0.8977  0.0067
 
              Baa    -0.0026    -1.375    -0.491    -0.459 -0.4813  0.7675  0.4234
    47 H(1)   Bbb    -0.0013    -0.712    -0.254    -0.237  0.1087 -0.4271  0.8977
              Bcc     0.0039     2.087     0.745     0.696  0.8698  0.4781  0.1221
 
              Baa    -0.0018    -0.946    -0.337    -0.315  0.5897 -0.1925  0.7843
    48 H(1)   Bbb    -0.0006    -0.343    -0.122    -0.114 -0.0609  0.9578  0.2809
              Bcc     0.0024     1.288     0.460     0.430  0.8053  0.2134 -0.5531
 
              Baa    -0.0017    -0.911    -0.325    -0.304 -0.3610  0.7515  0.5523
    49 H(1)   Bbb    -0.0007    -0.367    -0.131    -0.122  0.8693  0.0568  0.4910
              Bcc     0.0024     1.278     0.456     0.426 -0.3376 -0.6573  0.6737
 
              Baa    -0.0013    -0.694    -0.248    -0.232  0.7082 -0.6773  0.1990
    50 H(1)   Bbb    -0.0007    -0.352    -0.126    -0.118 -0.1275  0.1545  0.9797
              Bcc     0.0020     1.046     0.373     0.349  0.6944  0.7193 -0.0231
 

 ---------------------------------------------------------------------------------

 No NMR shielding tensors so no spin-rotation constants.
 Leave Link  601 at Sun Mar  3 18:04:57 2024, MaxMem=  5368709120 cpu:         7.1
 (Enter /home/k0335/k033513/app/g09/l9999.exe)
 1\1\GINC-C24U16N4\SP\UCAM-B3LYP\6-31G(d,p)\C15H20F9N3O3(1+,2)\K033513\
 03-Mar-2024\0\\#p CAM-B3LYP/6-31G(d,p) SCRF=(PCM,Solvent=Generic,Read)
  NoSymm out=wfn\\Title A892693592_p1\\1,2\C,0,-0.607243,5.601474,-0.05
 8187\C,0,-1.698483,4.630411,0.365262\C,0,-1.212544,3.185539,0.494819\C
 ,0,-0.798362,2.566022,-0.843789\N,0,-0.38142,1.16774,-0.72396\C,0,-1.3
 97272,0.197505,-0.490384\N,0,-0.935299,-1.115331,-0.790635\C,0,-1.9457
 53,-2.158124,-0.969907\C,0,-2.639468,-2.559123,0.335199\C,0,-3.645011,
 -3.686191,0.102495\C,0,-4.342264,-4.085977,1.393022\C,0,0.323641,-1.47
 1769,-0.344856\O,0,0.570076,-2.648425,-0.084609\N,0,1.251304,-0.445102
 ,-0.236413\C,0,2.568481,-0.837195,0.260387\F,0,2.448531,-1.014353,1.61
 4003\F,0,2.856895,-2.080278,-0.240038\C,0,3.876581,-0.01556,0.016185\F
 ,0,3.787484,1.223395,0.584041\O,0,5.065431,-0.503092,0.675119\C,0,5.34
 2906,-1.87144,0.56615\F,0,4.518069,-2.574118,1.355948\F,0,6.607343,-2.
 076944,0.985018\F,0,5.25034,-2.283789,-0.703129\C,0,4.055707,0.14116,-
 1.499082\F,0,4.036513,-1.033489,-2.165312\F,0,5.241496,0.733191,-1.791
 132\F,0,3.092817,0.898975,-2.070937\C,0,0.896831,0.880928,-0.298744\O,
 0,1.669625,1.792154,-0.024177\H,0,-0.988545,6.62746,-0.035289\H,0,0.25
 2933,5.544824,0.616314\H,0,-0.262977,5.399965,-1.076636\H,0,-2.091678,
 4.952375,1.336994\H,0,-2.530788,4.682581,-0.346163\H,0,-2.024336,2.592
 461,0.933085\H,0,-0.380274,3.139036,1.207319\H,0,-1.624845,2.611973,-1
 .562509\H,0,0.034472,3.129645,-1.278603\H,0,-2.260292,0.425064,-1.1250
 28\H,0,-1.690902,0.238304,0.564712\H,0,-2.67902,-1.794789,-1.699586\H,
 0,-1.462115,-3.036011,-1.415417\H,0,-3.156108,-1.691662,0.763106\H,0,-
 1.894665,-2.876596,1.074716\H,0,-3.133663,-4.561124,-0.315463\H,0,-4.3
 96991,-3.368955,-0.629329\H,0,-4.890638,-3.24063,1.82082\H,0,-3.619975
 ,-4.438805,2.136092\H,0,-5.056548,-4.893312,1.203533\\Version=ES64L-G0
 9RevD.01\HF=-1871.2339286\S2=0.761676\S2-1=0.\S2A=0.750079\RMSD=6.003e
 -09\Dipole=-7.0331327,0.0002534,-0.9047026\Quadrupole=2.3620615,4.4517
 145,-6.8137759,4.1358459,1.9046759,1.0375548\PG=C01 [X(C15H20F9N3O3)]\
 \@

 Writing a WFN file to "A892693592/A892693592_p1.wfn"


 EVERY WORD THAT YOU WRITE IS A BLOW THAT SMITES THE DEVIL.
     -- ST. BERNARD OF CLAIRVAUX
 Job cpu time:       0 days  0 hours 53 minutes 58.4 seconds.
 File lengths (MBytes):  RWF=    501 Int=      0 D2E=      0 Chk=     16 Scr=      1
 Normal termination of Gaussian 09 at Sun Mar  3 18:04:58 2024.
