 Entering Gaussian System, Link 0=g09
 Initial command:
 /home/k0335/k033513/app/g09/l1.exe "/home/k0335/k033513/app/g09/scratch/Gau-2946232.inp" -scrdir="/home/k0335/k033513/app/g09/scratch/"
 Default is to use a total of  36 processors:
                               36 via shared-memory
                                1 via Linda
 Entering Link 1 = /home/k0335/k033513/app/g09/l1.exe PID=   2946233.
  
 Copyright (c) 1988,1990,1992,1993,1995,1998,2003,2009,2013,
            Gaussian, Inc.  All Rights Reserved.
  
 This is part of the Gaussian(R) 09 program.  It is based on
 the Gaussian(R) 03 system (copyright 2003, Gaussian, Inc.),
 the Gaussian(R) 98 system (copyright 1998, Gaussian, Inc.),
 the Gaussian(R) 94 system (copyright 1995, Gaussian, Inc.),
 the Gaussian 92(TM) system (copyright 1992, Gaussian, Inc.),
 the Gaussian 90(TM) system (copyright 1990, Gaussian, Inc.),
 the Gaussian 88(TM) system (copyright 1988, Gaussian, Inc.),
 the Gaussian 86(TM) system (copyright 1986, Carnegie Mellon
 University), and the Gaussian 82(TM) system (copyright 1983,
 Carnegie Mellon University). Gaussian is a federally registered
 trademark of Gaussian, Inc.
  
 This software contains proprietary and confidential information,
 including trade secrets, belonging to Gaussian, Inc.
  
 This software is provided under written license and may be
 used, copied, transmitted, or stored only in accord with that
 written license.
  
 The following legend is applicable only to US Government
 contracts under FAR:
  
                    RESTRICTED RIGHTS LEGEND
  
 Use, reproduction and disclosure by the US Government is
 subject to restrictions as set forth in subparagraphs (a)
 and (c) of the Commercial Computer Software - Restricted
 Rights clause in FAR 52.227-19.
  
 Gaussian, Inc.
 340 Quinnipiac St., Bldg. 40, Wallingford CT 06492
  
  
 ---------------------------------------------------------------
 Warning -- This program may not be used in any manner that
 competes with the business of Gaussian, Inc. or will provide
 assistance to any competitor of Gaussian, Inc.  The licensee
 of this program is prohibited from giving any competitor of
 Gaussian, Inc. access to this program.  By using this program,
 the user acknowledges that Gaussian, Inc. is engaged in the
 business of creating and licensing software in the field of
 computational chemistry and represents and warrants to the
 licensee that it is not a competitor of Gaussian, Inc. and that
 it will not use this program in any manner prohibited above.
 ---------------------------------------------------------------
  

 Cite this work as:
 Gaussian 09, Revision D.01,
 M. J. Frisch, G. W. Trucks, H. B. Schlegel, G. E. Scuseria, 
 M. A. Robb, J. R. Cheeseman, G. Scalmani, V. Barone, B. Mennucci, 
 G. A. Petersson, H. Nakatsuji, M. Caricato, X. Li, H. P. Hratchian, 
 A. F. Izmaylov, J. Bloino, G. Zheng, J. L. Sonnenberg, M. Hada, 
 M. Ehara, K. Toyota, R. Fukuda, J. Hasegawa, M. Ishida, T. Nakajima, 
 Y. Honda, O. Kitao, H. Nakai, T. Vreven, J. A. Montgomery, Jr., 
 J. E. Peralta, F. Ogliaro, M. Bearpark, J. J. Heyd, E. Brothers, 
 K. N. Kudin, V. N. Staroverov, T. Keith, R. Kobayashi, J. Normand, 
 K. Raghavachari, A. Rendell, J. C. Burant, S. S. Iyengar, J. Tomasi, 
 M. Cossi, N. Rega, J. M. Millam, M. Klene, J. E. Knox, J. B. Cross, 
 V. Bakken, C. Adamo, J. Jaramillo, R. Gomperts, R. E. Stratmann, 
 O. Yazyev, A. J. Austin, R. Cammi, C. Pomelli, J. W. Ochterski, 
 R. L. Martin, K. Morokuma, V. G. Zakrzewski, G. A. Voth, 
 P. Salvador, J. J. Dannenberg, S. Dapprich, A. D. Daniels, 
 O. Farkas, J. B. Foresman, J. V. Ortiz, J. Cioslowski, 
 and D. J. Fox, Gaussian, Inc., Wallingford CT, 2013.
 
 ******************************************
 Gaussian 09:  ES64L-G09RevD.01 24-Apr-2013
                30-Jan-2025 
 ******************************************
 %nprocshared=24
 Will use up to   24 processors via shared memory.
 %mem=40GB
 %rwf=finalTAG/finalTAG_p1.rwf
 %nosave
 %chk=finalTAG/finalTAG_p1.chk
 ----------------------------------------------------------------------
 #p CAM-B3LYP/6-31G(d,p) SCRF=(PCM,Solvent=Generic,Read) NoSymm out=wfn
 ----------------------------------------------------------------------
 1/38=1,40=2/1;
 2/12=2,15=1,17=6,18=5,40=1/2;
 3/5=1,6=6,7=101,11=2,16=1,25=1,30=1,70=2203,72=-2,74=-40/1,2,3;
 4//1;
 5/5=2,38=5/2;
 6/7=2,8=2,9=2,10=2,28=1/1;
 99/5=1,6=100,9=1/99;
 Leave Link    1 at Thu Jan 30 13:12:15 2025, MaxMem=  5368709120 cpu:         1.3
 (Enter /home/k0335/k033513/app/g09/l101.exe)
 -----------------
 Title finalTAG_p1
 -----------------
 Symbolic Z-matrix:
 Charge =  1 Multiplicity = 2
 O                    -3.15231   0.204    -0.2348 
 C                    -1.93913   0.16708  -0.36513 
 N                    -1.08462   1.26034  -0.29146 
 C                    -1.52289   2.60458   0.01993 
 C                    -1.58301   2.82691   1.53327 
 C                    -2.08197   4.21204   1.95911 
 C                    -1.17176   5.35838   1.52243 
 F                     0.11732   5.06034   1.84792 
 F                    -1.20513   5.44468   0.16392 
 C                    -1.57622   6.7104    2.16653 
 F                    -2.84086   7.0608    1.80812 
 F                    -1.62775   6.54578   3.52326 
 O                    -0.74483   7.82833   1.97046 
 C                    -0.52089   8.06183   0.61226 
 F                    -1.63341   7.88789  -0.12049 
 F                     0.45392   7.24805   0.16581 
 F                    -0.10664   9.3346    0.46017 
 C                     0.26117   0.91104  -0.68233 
 C                     0.20629  -0.63538  -0.82303 
 N                    -1.18632  -0.9666   -0.66285 
 C                    -1.77783  -2.20064  -1.14503 
 C                    -2.12567  -2.11717  -2.63392 
 C                    -2.4334   -3.47225  -3.28372 
 C                    -3.63357  -4.2046   -2.6832 
 F                    -3.3606   -4.51154  -1.38589 
 F                    -4.69285  -3.35632  -2.66767 
 C                    -3.97231  -5.50149  -3.46516 
 F                    -4.27306  -5.22365  -4.76225 
 F                    -2.83751  -6.26438  -3.52779 
 O                    -4.96037  -6.36699  -2.96487 
 C                    -6.16191  -5.68586  -2.74605 
 F                    -7.16055  -6.58989  -2.68877 
 F                    -6.4328   -4.81603  -3.73434 
 F                    -6.10805  -5.0439   -1.56636 
 N                     1.06497  -1.10184   0.24022 
 C                     1.32007  -2.49282   0.54753 
 C                     0.4988   -2.95552   1.75204 
 C                     0.82667  -4.40037   2.13253 
 C                    -0.01593  -4.87401   3.31326 
 F                     0.17232  -4.02733   4.36334 
 F                    -1.33321  -4.77988   2.97439 
 C                     0.31837  -6.31863   3.72695 
 F                     1.63051  -6.40873   4.0659 
 F                     0.12215  -7.15597   2.67571 
 O                    -0.44805  -6.74083   4.82826 
 C                    -0.37842  -8.13144   4.93905 
 F                     0.87758  -8.59077   4.79643 
 F                    -0.81626  -8.48081   6.16667 
 F                    -1.18319  -8.71202   4.02697 
 C                     1.74228  -0.05083   0.84583 
 O                     2.64166  -0.16076   1.66255 
 N                     1.26392   1.14682   0.32461 
 C                     1.95943   2.40638   0.50144 
 C                     3.09351   2.58201  -0.5115 
 C                     3.8914    3.85415  -0.2268 
 C                     5.14928   4.02823  -1.0799 
 F                     5.96176   2.95071  -0.89807 
 F                     5.82583   5.09339  -0.56087 
 C                     4.89085   4.25072  -2.5932 
 F                     4.17527   3.19238  -3.0776 
 F                     4.08817   5.33024  -2.79427 
 O                     5.98908   4.35745  -3.46574 
 C                     6.87836   5.35294  -3.05504 
 F                     6.23676   6.44483  -2.60578 
 F                     7.63477   5.71106  -4.11262 
 F                     7.69394   4.86729  -2.10267 
 H                    -2.52521   2.74588  -0.40285 
 H                    -0.85143   3.30412  -0.48305 
 H                    -0.59715   2.64381   1.97927 
 H                    -2.24859   2.07444   1.97545 
 H                    -2.15886   4.20539   3.05295 
 H                    -3.09034   4.37166   1.56006 
 H                     0.51646   1.39817  -1.62955 
 H                     0.59227  -0.96987  -1.79208 
 H                    -2.68842  -2.38336  -0.56375 
 H                    -1.08119  -3.02071  -0.9534 
 H                    -1.28609  -1.66871  -3.17971 
 H                    -2.97363  -1.43456  -2.77582 
 H                    -1.54187  -4.10632  -3.21181 
 H                    -2.62208  -3.29063  -4.34819 
 H                     2.38808  -2.59712   0.7779 
 H                     1.11359  -3.10074  -0.34015 
 H                     0.69622  -2.2978    2.60828 
 H                    -0.57045  -2.86343   1.52951 
 H                     0.64485  -5.04848   1.26769 
 H                     1.89149  -4.47165   2.38553 
 H                     2.36873   2.42279   1.51871 
 H                     1.24346   3.22775   0.41711 
 H                     2.66162   2.61753  -1.51647 
 H                     3.75943   1.71103  -0.48039 
 H                     4.20739   3.83887   0.82372 
 H                     3.24862   4.73549  -0.33667 
 
 NAtoms=     92 NQM=       92 NQMF=       0 NMMI=      0 NMMIF=      0
                NMic=       0 NMicF=      0.
                    Isotopes and Nuclear Properties:
 (Nuclear quadrupole moments (NQMom) in fm**2, nuclear magnetic moments (NMagM)
  in nuclear magnetons)

  Atom         1           2           3           4           5           6           7           8           9          10
 IAtWgt=          16          12          14          12          12          12          12          19          19          12
 AtmWgt=  15.9949146  12.0000000  14.0030740  12.0000000  12.0000000  12.0000000  12.0000000  18.9984033  18.9984033  12.0000000
 NucSpn=           0           0           2           0           0           0           0           1           1           0
 AtZEff=   0.0000000   0.0000000   0.0000000   0.0000000   0.0000000   0.0000000   0.0000000   0.0000000   0.0000000   0.0000000
 NQMom=    0.0000000   0.0000000   2.0440000   0.0000000   0.0000000   0.0000000   0.0000000   0.0000000   0.0000000   0.0000000
 NMagM=    0.0000000   0.0000000   0.4037610   0.0000000   0.0000000   0.0000000   0.0000000   2.6288670   2.6288670   0.0000000
 AtZNuc=   8.0000000   6.0000000   7.0000000   6.0000000   6.0000000   6.0000000   6.0000000   9.0000000   9.0000000   6.0000000

  Atom        11          12          13          14          15          16          17          18          19          20
 IAtWgt=          19          19          16          12          19          19          19          12          12          14
 AtmWgt=  18.9984033  18.9984033  15.9949146  12.0000000  18.9984033  18.9984033  18.9984033  12.0000000  12.0000000  14.0030740
 NucSpn=           1           1           0           0           1           1           1           0           0           2
 AtZEff=   0.0000000   0.0000000   0.0000000   0.0000000   0.0000000   0.0000000   0.0000000   0.0000000   0.0000000   0.0000000
 NQMom=    0.0000000   0.0000000   0.0000000   0.0000000   0.0000000   0.0000000   0.0000000   0.0000000   0.0000000   2.0440000
 NMagM=    2.6288670   2.6288670   0.0000000   0.0000000   2.6288670   2.6288670   2.6288670   0.0000000   0.0000000   0.4037610
 AtZNuc=   9.0000000   9.0000000   8.0000000   6.0000000   9.0000000   9.0000000   9.0000000   6.0000000   6.0000000   7.0000000

  Atom        21          22          23          24          25          26          27          28          29          30
 IAtWgt=          12          12          12          12          19          19          12          19          19          16
 AtmWgt=  12.0000000  12.0000000  12.0000000  12.0000000  18.9984033  18.9984033  12.0000000  18.9984033  18.9984033  15.9949146
 NucSpn=           0           0           0           0           1           1           0           1           1           0
 AtZEff=   0.0000000   0.0000000   0.0000000   0.0000000   0.0000000   0.0000000   0.0000000   0.0000000   0.0000000   0.0000000
 NQMom=    0.0000000   0.0000000   0.0000000   0.0000000   0.0000000   0.0000000   0.0000000   0.0000000   0.0000000   0.0000000
 NMagM=    0.0000000   0.0000000   0.0000000   0.0000000   2.6288670   2.6288670   0.0000000   2.6288670   2.6288670   0.0000000
 AtZNuc=   6.0000000   6.0000000   6.0000000   6.0000000   9.0000000   9.0000000   6.0000000   9.0000000   9.0000000   8.0000000

  Atom        31          32          33          34          35          36          37          38          39          40
 IAtWgt=          12          19          19          19          14          12          12          12          12          19
 AtmWgt=  12.0000000  18.9984033  18.9984033  18.9984033  14.0030740  12.0000000  12.0000000  12.0000000  12.0000000  18.9984033
 NucSpn=           0           1           1           1           2           0           0           0           0           1
 AtZEff=   0.0000000   0.0000000   0.0000000   0.0000000   0.0000000   0.0000000   0.0000000   0.0000000   0.0000000   0.0000000
 NQMom=    0.0000000   0.0000000   0.0000000   0.0000000   2.0440000   0.0000000   0.0000000   0.0000000   0.0000000   0.0000000
 NMagM=    0.0000000   2.6288670   2.6288670   2.6288670   0.4037610   0.0000000   0.0000000   0.0000000   0.0000000   2.6288670
 AtZNuc=   6.0000000   9.0000000   9.0000000   9.0000000   7.0000000   6.0000000   6.0000000   6.0000000   6.0000000   9.0000000

  Atom        41          42          43          44          45          46          47          48          49          50
 IAtWgt=          19          12          19          19          16          12          19          19          19          12
 AtmWgt=  18.9984033  12.0000000  18.9984033  18.9984033  15.9949146  12.0000000  18.9984033  18.9984033  18.9984033  12.0000000
 NucSpn=           1           0           1           1           0           0           1           1           1           0
 AtZEff=   0.0000000   0.0000000   0.0000000   0.0000000   0.0000000   0.0000000   0.0000000   0.0000000   0.0000000   0.0000000
 NQMom=    0.0000000   0.0000000   0.0000000   0.0000000   0.0000000   0.0000000   0.0000000   0.0000000   0.0000000   0.0000000
 NMagM=    2.6288670   0.0000000   2.6288670   2.6288670   0.0000000   0.0000000   2.6288670   2.6288670   2.6288670   0.0000000
 AtZNuc=   9.0000000   6.0000000   9.0000000   9.0000000   8.0000000   6.0000000   9.0000000   9.0000000   9.0000000   6.0000000

  Atom        51          52          53          54          55          56          57          58          59          60
 IAtWgt=          16          14          12          12          12          12          19          19          12          19
 AtmWgt=  15.9949146  14.0030740  12.0000000  12.0000000  12.0000000  12.0000000  18.9984033  18.9984033  12.0000000  18.9984033
 NucSpn=           0           2           0           0           0           0           1           1           0           1
 AtZEff=   0.0000000   0.0000000   0.0000000   0.0000000   0.0000000   0.0000000   0.0000000   0.0000000   0.0000000   0.0000000
 NQMom=    0.0000000   2.0440000   0.0000000   0.0000000   0.0000000   0.0000000   0.0000000   0.0000000   0.0000000   0.0000000
 NMagM=    0.0000000   0.4037610   0.0000000   0.0000000   0.0000000   0.0000000   2.6288670   2.6288670   0.0000000   2.6288670
 AtZNuc=   8.0000000   7.0000000   6.0000000   6.0000000   6.0000000   6.0000000   9.0000000   9.0000000   6.0000000   9.0000000

  Atom        61          62          63          64          65          66          67          68          69          70
 IAtWgt=          19          16          12          19          19          19           1           1           1           1
 AtmWgt=  18.9984033  15.9949146  12.0000000  18.9984033  18.9984033  18.9984033   1.0078250   1.0078250   1.0078250   1.0078250
 NucSpn=           1           0           0           1           1           1           1           1           1           1
 AtZEff=   0.0000000   0.0000000   0.0000000   0.0000000   0.0000000   0.0000000   0.0000000   0.0000000   0.0000000   0.0000000
 NQMom=    0.0000000   0.0000000   0.0000000   0.0000000   0.0000000   0.0000000   0.0000000   0.0000000   0.0000000   0.0000000
 NMagM=    2.6288670   0.0000000   0.0000000   2.6288670   2.6288670   2.6288670   2.7928460   2.7928460   2.7928460   2.7928460
 AtZNuc=   9.0000000   8.0000000   6.0000000   9.0000000   9.0000000   9.0000000   1.0000000   1.0000000   1.0000000   1.0000000

  Atom        71          72          73          74          75          76          77          78          79          80
 IAtWgt=           1           1           1           1           1           1           1           1           1           1
 AtmWgt=   1.0078250   1.0078250   1.0078250   1.0078250   1.0078250   1.0078250   1.0078250   1.0078250   1.0078250   1.0078250
 NucSpn=           1           1           1           1           1           1           1           1           1           1
 AtZEff=   0.0000000   0.0000000   0.0000000   0.0000000   0.0000000   0.0000000   0.0000000   0.0000000   0.0000000   0.0000000
 NQMom=    0.0000000   0.0000000   0.0000000   0.0000000   0.0000000   0.0000000   0.0000000   0.0000000   0.0000000   0.0000000
 NMagM=    2.7928460   2.7928460   2.7928460   2.7928460   2.7928460   2.7928460   2.7928460   2.7928460   2.7928460   2.7928460
 AtZNuc=   1.0000000   1.0000000   1.0000000   1.0000000   1.0000000   1.0000000   1.0000000   1.0000000   1.0000000   1.0000000

  Atom        81          82          83          84          85          86          87          88          89          90
 IAtWgt=           1           1           1           1           1           1           1           1           1           1
 AtmWgt=   1.0078250   1.0078250   1.0078250   1.0078250   1.0078250   1.0078250   1.0078250   1.0078250   1.0078250   1.0078250
 NucSpn=           1           1           1           1           1           1           1           1           1           1
 AtZEff=   0.0000000   0.0000000   0.0000000   0.0000000   0.0000000   0.0000000   0.0000000   0.0000000   0.0000000   0.0000000
 NQMom=    0.0000000   0.0000000   0.0000000   0.0000000   0.0000000   0.0000000   0.0000000   0.0000000   0.0000000   0.0000000
 NMagM=    2.7928460   2.7928460   2.7928460   2.7928460   2.7928460   2.7928460   2.7928460   2.7928460   2.7928460   2.7928460
 AtZNuc=   1.0000000   1.0000000   1.0000000   1.0000000   1.0000000   1.0000000   1.0000000   1.0000000   1.0000000   1.0000000

  Atom        91          92
 IAtWgt=           1           1
 AtmWgt=   1.0078250   1.0078250
 NucSpn=           1           1
 AtZEff=   0.0000000   0.0000000
 NQMom=    0.0000000   0.0000000
 NMagM=    2.7928460   2.7928460
 AtZNuc=   1.0000000   1.0000000
 Leave Link  101 at Thu Jan 30 13:12:15 2025, MaxMem=  5368709120 cpu:         1.1
 (Enter /home/k0335/k033513/app/g09/l202.exe)
 Symmetry turned off by external request.
 Stoichiometry    C28H26F28N4O6(1+,2)
 Framework group  C1[X(C28H26F28N4O6)]
 Deg. of freedom   270
 Full point group                 C1      NOp   1
                          Input orientation:                          
 ---------------------------------------------------------------------
 Center     Atomic      Atomic             Coordinates (Angstroms)
 Number     Number       Type             X           Y           Z
 ---------------------------------------------------------------------
      1          8           0       -3.152312    0.204000   -0.234800
      2          6           0       -1.939128    0.167083   -0.365129
      3          7           0       -1.084621    1.260344   -0.291455
      4          6           0       -1.522894    2.604584    0.019926
      5          6           0       -1.583006    2.826913    1.533269
      6          6           0       -2.081966    4.212042    1.959108
      7          6           0       -1.171760    5.358378    1.522431
      8          9           0        0.117317    5.060344    1.847924
      9          9           0       -1.205130    5.444684    0.163924
     10          6           0       -1.576217    6.710402    2.166526
     11          9           0       -2.840864    7.060803    1.808122
     12          9           0       -1.627754    6.545776    3.523258
     13          8           0       -0.744831    7.828332    1.970460
     14          6           0       -0.520885    8.061825    0.612255
     15          9           0       -1.633410    7.887885   -0.120486
     16          9           0        0.453915    7.248052    0.165812
     17          9           0       -0.106642    9.334596    0.460167
     18          6           0        0.261173    0.911035   -0.682328
     19          6           0        0.206286   -0.635377   -0.823028
     20          7           0       -1.186319   -0.966596   -0.662848
     21          6           0       -1.777834   -2.200638   -1.145030
     22          6           0       -2.125670   -2.117171   -2.633915
     23          6           0       -2.433401   -3.472253   -3.283718
     24          6           0       -3.633572   -4.204603   -2.683201
     25          9           0       -3.360602   -4.511538   -1.385894
     26          9           0       -4.692849   -3.356315   -2.667671
     27          6           0       -3.972311   -5.501487   -3.465161
     28          9           0       -4.273055   -5.223648   -4.762247
     29          9           0       -2.837509   -6.264376   -3.527790
     30          8           0       -4.960370   -6.366990   -2.964870
     31          6           0       -6.161911   -5.685859   -2.746049
     32          9           0       -7.160546   -6.589889   -2.688774
     33          9           0       -6.432801   -4.816030   -3.734336
     34          9           0       -6.108048   -5.043905   -1.566356
     35          7           0        1.064969   -1.101836    0.240215
     36          6           0        1.320070   -2.492818    0.547528
     37          6           0        0.498795   -2.955518    1.752039
     38          6           0        0.826673   -4.400369    2.132525
     39          6           0       -0.015926   -4.874013    3.313255
     40          9           0        0.172316   -4.027325    4.363341
     41          9           0       -1.333213   -4.779876    2.974391
     42          6           0        0.318372   -6.318631    3.726954
     43          9           0        1.630511   -6.408729    4.065902
     44          9           0        0.122153   -7.155968    2.675707
     45          8           0       -0.448054   -6.740832    4.828263
     46          6           0       -0.378422   -8.131445    4.939052
     47          9           0        0.877576   -8.590770    4.796425
     48          9           0       -0.816257   -8.480810    6.166668
     49          9           0       -1.183186   -8.712021    4.026971
     50          6           0        1.742280   -0.050828    0.845831
     51          8           0        2.641659   -0.160764    1.662553
     52          7           0        1.263921    1.146821    0.324609
     53          6           0        1.959426    2.406384    0.501439
     54          6           0        3.093509    2.582005   -0.511500
     55          6           0        3.891401    3.854149   -0.226799
     56          6           0        5.149279    4.028230   -1.079896
     57          9           0        5.961759    2.950708   -0.898068
     58          9           0        5.825825    5.093394   -0.560870
     59          6           0        4.890851    4.250716   -2.593198
     60          9           0        4.175269    3.192375   -3.077600
     61          9           0        4.088168    5.330238   -2.794270
     62          8           0        5.989083    4.357453   -3.465737
     63          6           0        6.878361    5.352941   -3.055041
     64          9           0        6.236757    6.444834   -2.605781
     65          9           0        7.634767    5.711058   -4.112622
     66          9           0        7.693939    4.867287   -2.102665
     67          1           0       -2.525210    2.745875   -0.402850
     68          1           0       -0.851429    3.304120   -0.483051
     69          1           0       -0.597152    2.643811    1.979273
     70          1           0       -2.248588    2.074436    1.975445
     71          1           0       -2.158862    4.205391    3.052945
     72          1           0       -3.090340    4.371657    1.560064
     73          1           0        0.516456    1.398173   -1.629545
     74          1           0        0.592265   -0.969872   -1.792076
     75          1           0       -2.688422   -2.383357   -0.563750
     76          1           0       -1.081189   -3.020714   -0.953400
     77          1           0       -1.286093   -1.668709   -3.179714
     78          1           0       -2.973626   -1.434558   -2.775823
     79          1           0       -1.541866   -4.106324   -3.211814
     80          1           0       -2.622078   -3.290629   -4.348188
     81          1           0        2.388079   -2.597115    0.777898
     82          1           0        1.113594   -3.100740   -0.340154
     83          1           0        0.696219   -2.297797    2.608276
     84          1           0       -0.570447   -2.863427    1.529512
     85          1           0        0.644850   -5.048481    1.267694
     86          1           0        1.891490   -4.471648    2.385526
     87          1           0        2.368732    2.422793    1.518707
     88          1           0        1.243459    3.227748    0.417112
     89          1           0        2.661620    2.617532   -1.516466
     90          1           0        3.759425    1.711034   -0.480388
     91          1           0        4.207385    3.838872    0.823719
     92          1           0        3.248623    4.735488   -0.336668
 ---------------------------------------------------------------------
 Rotational constants (GHZ):      0.0309046      0.0124279      0.0116152
 Leave Link  202 at Thu Jan 30 13:12:15 2025, MaxMem=  5368709120 cpu:         0.1
 (Enter /home/k0335/k033513/app/g09/l301.exe)
 Standard basis: 6-31G(d,p) (6D, 7F)
 Ernie: Thresh=  0.10000D-02 Tol=  0.10000D-05 Strict=F.
  1120 basis functions,  2030 primitive gaussians,  1120 cartesian basis functions
   261 alpha electrons      260 beta electrons
       nuclear repulsion energy     11590.3514344143 Hartrees.
 IExCor=20419 DFT=T Ex+Corr=CAM-B3LYP ExCW=0 ScaHFX=  1.000000
 ScaDFX=  1.000000  1.000000  1.000000  0.810000 ScalE2=  1.000000  1.000000
 IRadAn=      0 IRanWt=     -1 IRanGd=            0 ICorTp=0 IEmpDi=  4
  HFx wShort=  0.000000 wLong=  0.330000 cFull=  0.190000 cShort=  0.000000 cLong=  0.460000
  DFx wShort=  0.000000 wLong=  0.330000 cFull=  0.190000 cShort=  0.000000 cLong=  0.460000
 NAtoms=   92 NActive=   92 NUniq=   92 SFac= 1.00D+00 NAtFMM=   60 NAOKFM=T Big=T
 Integral buffers will be    131072 words long.
 Raffenetti 2 integral format.
 Two-electron integral symmetry is turned off.
 Using the following non-standard input for PCM:
 eps=4.9
 --- end of non-standard input.
 ------------------------------------------------------------------------------
 Polarizable Continuum Model (PCM)
 =================================
 Model                : PCM (using non-symmetric T matrix).
 Atomic radii         : UFF (Universal Force Field).
 Polarization charges : Total charges.
 Charge compensation  : None.
 Solution method      : On-the-fly selection.
 Cavity type          : Scaled VdW (van der Waals Surface) (Alpha=1.100).
 Cavity algorithm     : GePol (No added spheres)
                        Default sphere list used, NSphG=   92.
                        Lebedev-Laikov grids with approx.  5.0 points / Ang**2.
                        Smoothing algorithm: Karplus/York (Gamma=1.0000).
                        Polarization charges: spherical gaussians, with
                                              point-specific exponents (IZeta= 3).
                        Self-potential: point-specific (ISelfS= 7).
                        Self-field    : sphere-specific E.n sum rule (ISelfD= 2).
 Solvent              : Generic,
                        Eps                           =   4.900000
                        Eps(infinity)                 =   0.000000
                        RSolv                         =   0.000000 Ang.
                        Molar volume                  =   0.000000 cm**3/mol
                        Thermal expansion coefficient =   0.000000 K**-1
                        Absolute temperature          = 298.150000 K
                        Numeral density               =   0.000000 Ang**-3
                        Hydrogen bond acidity         =   0.000000
                        Hydrogen bond basicity        =   0.000000
                        Surface tension at interface  =   0.000000 (cal/mol)*Ang**-2
                        Carbon aromaticity            =   0.000000
                        Electronegative halogenicity  =   0.000000
 ------------------------------------------------------------------------------
 GePol: Number of generator spheres                  =      92
 GePol: Total number of spheres                      =      92
 GePol: Number of exposed spheres                    =      92 (100.00%)
 GePol: Number of points                             =    6945
 GePol: Average weight of points                     =       0.13
 GePol: Minimum weight of points                     =   0.11D-11
 GePol: Maximum weight of points                     =    0.20577
 GePol: Number of points with low weight             =     357
 GePol: Fraction of low-weight points (<1% of avg)   =       5.14%
 GePol: Cavity surface area                          =    868.560 Ang**2
 GePol: Cavity volume                                =   1001.616 Ang**3
 Leave Link  301 at Thu Jan 30 13:12:15 2025, MaxMem=  5368709120 cpu:         0.8
 (Enter /home/k0335/k033513/app/g09/l302.exe)
 NPDir=0 NMtPBC=     1 NCelOv=     1 NCel=       1 NClECP=     1 NCelD=      1
         NCelK=      1 NCelE2=     1 NClLst=     1 CellRange=     0.0.
 One-electron integrals computed using PRISM.
 NBasis=  1120 RedAO= T EigKep=  6.66D-04  NBF=  1120
 NBsUse=  1120 1.00D-06 EigRej= -1.00D+00 NBFU=  1120
 Precomputing XC quadrature grid using
 IXCGrd= 4 IRadAn=           0 IRanWt=          -1 IRanGd=           0 AccXCQ= 0.00D+00.
 Generated NRdTot=       0 NPtTot=           0 NUsed=           0 NTot=          32
 NSgBfM=   862   862   862   873   879 MxSgAt=    92 MxSgA2=    88.
 Leave Link  302 at Thu Jan 30 13:12:17 2025, MaxMem=  5368709120 cpu:        47.5
 (Enter /home/k0335/k033513/app/g09/l303.exe)
 DipDrv:  MaxL=1.
 Leave Link  303 at Thu Jan 30 13:12:18 2025, MaxMem=  5368709120 cpu:         2.0
 (Enter /home/k0335/k033513/app/g09/l401.exe)
 ExpMin= 1.61D-01 ExpMax= 7.00D+03 ExpMxC= 1.05D+03 IAcc=1 IRadAn=         1 AccDes= 0.00D+00
 Harris functional with IExCor=20419 and IRadAn=       1 diagonalized for initial guess.
 HarFok:  IExCor=20419 AccDes= 0.00D+00 IRadAn=         1 IDoV= 1 UseB2=F ITyADJ=14
 ICtDFT=  3500011 ScaDFX=  1.000000  1.000000  1.000000  1.000000
 FoFCou: FMM=F IPFlag=           0 FMFlag=      100000 FMFlg1=        2001
         NFxFlg=           0 DoJE=T BraDBF=F KetDBF=T FulRan=T
         wScrn=  0.000000 ICntrl=     500 IOpCl=  0 I1Cent=   200000004 NGrid=           0
         NMat0=    1 NMatS0=      1 NMatT0=    0 NMatD0=    1 NMtDS0=    0 NMtDT0=    0
 Symmetry not used in FoFCou.
 Harris En= -4406.18122472927    
 JPrj=0 DoOrth=F DoCkMO=F.
 Initial guess <Sx>= 0.0000 <Sy>= 0.0000 <Sz>= 0.5000 <S**2>= 0.7500 S= 0.5000
 Leave Link  401 at Thu Jan 30 13:12:20 2025, MaxMem=  5368709120 cpu:        53.2
 (Enter /home/k0335/k033513/app/g09/l502.exe)
 UHF open shell SCF:
 Using DIIS extrapolation, IDIIS=  1040.
 Two-electron integral symmetry not used.
 IVT=     3815534 IEndB=     3815534 NGot=  5368709120 MDV=  5366165747
 LenX=  5366165747 LenY=  5364910227
 Requested convergence on RMS density matrix=1.00D-08 within 128 cycles.
 Requested convergence on MAX density matrix=1.00D-06.
 Requested convergence on             energy=1.00D-06.
 No special actions if energy rises.
 Fock matrices will be formed incrementally for  20 cycles.

 Cycle   1  Pass 1  IDiag  1:
 FoFJK:  IHMeth= 1 ICntrl=       0 DoSepK=T KAlg= 0 I1Cent=   0 FoldK=F
 IRaf=         1 NMat=   1 IRICut=       1 DoRegI=T DoRafI=F ISym2E= 0.
 FoFCou: FMM=T IPFlag=           0 FMFlag=      100000 FMFlg1=        2001
         NFxFlg=           0 DoJE=T BraDBF=F KetDBF=F FulRan=T
         wScrn=  0.000000 ICntrl=     500 IOpCl=  0 I1Cent=           0 NGrid=           0
         NMat0=    1 NMatS0=      1 NMatT0=    0 NMatD0=    1 NMtDS0=    0 NMtDT0=    0
 Symmetry not used in FoFCou.
 FMM levels:  10  Number of levels for PrismC:   9
 Inv3:  Mode=1 IEnd=   144699075.
 Iteration    1 A*A^-1 deviation from unit magnitude is 7.55D-15 for   6907.
 Iteration    1 A*A^-1 deviation from orthogonality  is 7.11D-15 for   6929   5960.
 Iteration    1 A^-1*A deviation from unit magnitude is 7.44D-15 for   6907.
 Iteration    1 A^-1*A deviation from orthogonality  is 7.75D-13 for   6438   6428.
 E= -4545.39142531466    
 DIIS: error= 6.30D-02 at cycle   1 NSaved=   1.
 NSaved= 1 IEnMin= 1 EnMin= -4545.39142531466     IErMin= 1 ErrMin= 6.30D-02
 ErrMax= 6.30D-02  0.00D+00 EMaxC= 1.00D-01 BMatC= 1.58D+01 BMatP= 1.58D+01
 IDIUse=3 WtCom= 3.70D-01 WtEn= 6.30D-01
 Coeff-Com:  0.100D+01
 Coeff-En:   0.100D+01
 Coeff:      0.100D+01
 Gap=     0.555 Goal=   None    Shift=    0.000
 Gap=     0.113 Goal=   None    Shift=    0.000
 GapD=    0.113 DampG=1.000 DampE=0.500 DampFc=0.5000 IDamp=-1.
 Damping current iteration by 5.00D-01
 RMSDP=2.24D-03 MaxDP=1.20D-01              OVMax= 3.19D-01

 Cycle   2  Pass 1  IDiag  1:
 RMSU=  1.12D-03    CP:  9.98D-01
 E= -4546.20174714332     Delta-E=       -0.810321828661 Rises=F Damp=T
 DIIS: error= 2.82D-02 at cycle   2 NSaved=   2.
 NSaved= 2 IEnMin= 2 EnMin= -4546.20174714332     IErMin= 2 ErrMin= 2.82D-02
 ErrMax= 2.82D-02  0.00D+00 EMaxC= 1.00D-01 BMatC= 1.97D+00 BMatP= 1.58D+01
 IDIUse=3 WtCom= 7.18D-01 WtEn= 2.82D-01
 Coeff-Com: -0.244D+00 0.124D+01
 Coeff-En:   0.000D+00 0.100D+01
 Coeff:     -0.175D+00 0.118D+01
 Gap=     0.495 Goal=   None    Shift=    0.000
 Gap=     0.199 Goal=   None    Shift=    0.000
 RMSDP=6.96D-04 MaxDP=6.39D-02 DE=-8.10D-01 OVMax= 1.67D-01

 Cycle   3  Pass 1  IDiag  1:
 RMSU=  6.58D-04    CP:  9.97D-01  1.20D+00
 E= -4546.85683166325     Delta-E=       -0.655084519922 Rises=F Damp=F
 DIIS: error= 1.01D-02 at cycle   3 NSaved=   3.
 NSaved= 3 IEnMin= 3 EnMin= -4546.85683166325     IErMin= 3 ErrMin= 1.01D-02
 ErrMax= 1.01D-02  0.00D+00 EMaxC= 1.00D-01 BMatC= 8.31D-01 BMatP= 1.97D+00
 IDIUse=3 WtCom= 8.99D-01 WtEn= 1.01D-01
 Coeff-Com: -0.181D+00 0.567D+00 0.614D+00
 Coeff-En:   0.000D+00 0.000D+00 0.100D+01
 Coeff:     -0.163D+00 0.510D+00 0.653D+00
 Gap=     0.433 Goal=   None    Shift=    0.000
 Gap=     0.122 Goal=   None    Shift=    0.000
 RMSDP=5.01D-04 MaxDP=7.73D-02 DE=-6.55D-01 OVMax= 1.42D-01

 Cycle   4  Pass 1  IDiag  1:
 RMSU=  2.80D-04    CP:  9.95D-01  1.39D+00  4.53D-01
 E= -4546.97483006210     Delta-E=       -0.117998398857 Rises=F Damp=F
 DIIS: error= 5.76D-03 at cycle   4 NSaved=   4.
 NSaved= 4 IEnMin= 4 EnMin= -4546.97483006210     IErMin= 4 ErrMin= 5.76D-03
 ErrMax= 5.76D-03  0.00D+00 EMaxC= 1.00D-01 BMatC= 2.03D-01 BMatP= 8.31D-01
 IDIUse=3 WtCom= 9.42D-01 WtEn= 5.76D-02
 Coeff-Com: -0.634D-01 0.151D+00 0.373D+00 0.539D+00
 Coeff-En:   0.000D+00 0.000D+00 0.203D+00 0.797D+00
 Coeff:     -0.597D-01 0.143D+00 0.363D+00 0.554D+00
 Gap=     0.427 Goal=   None    Shift=    0.000
 Gap=     0.144 Goal=   None    Shift=    0.000
 RMSDP=2.04D-04 MaxDP=3.72D-02 DE=-1.18D-01 OVMax= 7.45D-02

 Cycle   5  Pass 1  IDiag  1:
 RMSU=  8.59D-05    CP:  9.95D-01  1.36D+00  6.61D-01  5.67D-01
 E= -4547.01095608560     Delta-E=       -0.036126023500 Rises=F Damp=F
 DIIS: error= 1.47D-03 at cycle   5 NSaved=   5.
 NSaved= 5 IEnMin= 5 EnMin= -4547.01095608560     IErMin= 5 ErrMin= 1.47D-03
 ErrMax= 1.47D-03  0.00D+00 EMaxC= 1.00D-01 BMatC= 1.23D-02 BMatP= 2.03D-01
 IDIUse=3 WtCom= 9.85D-01 WtEn= 1.47D-02
 Coeff-Com: -0.195D-01 0.379D-01 0.153D+00 0.309D+00 0.519D+00
 Coeff-En:   0.000D+00 0.000D+00 0.000D+00 0.000D+00 0.100D+01
 Coeff:     -0.192D-01 0.374D-01 0.151D+00 0.304D+00 0.526D+00
 Gap=     0.408 Goal=   None    Shift=    0.000
 Gap=     0.124 Goal=   None    Shift=    0.000
 RMSDP=4.10D-05 MaxDP=7.71D-03 DE=-3.61D-02 OVMax= 1.04D-02

 Cycle   6  Pass 1  IDiag  1:
 RMSU=  2.30D-05    CP:  9.95D-01  1.37D+00  6.51D-01  6.37D-01  7.03D-01
 E= -4547.01322778161     Delta-E=       -0.002271696008 Rises=F Damp=F
 DIIS: error= 1.43D-04 at cycle   6 NSaved=   6.
 NSaved= 6 IEnMin= 6 EnMin= -4547.01322778161     IErMin= 6 ErrMin= 1.43D-04
 ErrMax= 1.43D-04  0.00D+00 EMaxC= 1.00D-01 BMatC= 2.12D-04 BMatP= 1.23D-02
 IDIUse=3 WtCom= 9.99D-01 WtEn= 1.43D-03
 Coeff-Com:  0.450D-03-0.243D-02 0.972D-03 0.235D-01 0.101D+00 0.876D+00
 Coeff-En:   0.000D+00 0.000D+00 0.000D+00 0.000D+00 0.000D+00 0.100D+01
 Coeff:      0.450D-03-0.243D-02 0.971D-03 0.235D-01 0.101D+00 0.876D+00
 Gap=     0.410 Goal=   None    Shift=    0.000
 Gap=     0.126 Goal=   None    Shift=    0.000
 RMSDP=1.25D-05 MaxDP=1.94D-03 DE=-2.27D-03 OVMax= 6.52D-03

 Cycle   7  Pass 1  IDiag  1:
 RMSU=  9.61D-06    CP:  9.95D-01  1.37D+00  6.54D-01  6.52D-01  7.63D-01
                    CP:  1.16D+00
 E= -4547.01333540876     Delta-E=       -0.000107627147 Rises=F Damp=F
 DIIS: error= 1.13D-04 at cycle   7 NSaved=   7.
 NSaved= 7 IEnMin= 7 EnMin= -4547.01333540876     IErMin= 7 ErrMin= 1.13D-04
 ErrMax= 1.13D-04  0.00D+00 EMaxC= 1.00D-01 BMatC= 8.38D-05 BMatP= 2.12D-04
 IDIUse=3 WtCom= 9.99D-01 WtEn= 1.13D-03
 Coeff-Com:  0.324D-02-0.687D-02-0.237D-01-0.352D-01-0.353D-01 0.390D+00
 Coeff-Com:  0.708D+00
 Coeff-En:   0.000D+00 0.000D+00 0.000D+00 0.000D+00 0.000D+00 0.000D+00
 Coeff-En:   0.100D+01
 Coeff:      0.323D-02-0.687D-02-0.237D-01-0.352D-01-0.353D-01 0.390D+00
 Coeff:      0.708D+00
 Gap=     0.410 Goal=   None    Shift=    0.000
 Gap=     0.126 Goal=   None    Shift=    0.000
 RMSDP=7.57D-06 MaxDP=1.13D-03 DE=-1.08D-04 OVMax= 5.00D-03

 Cycle   8  Pass 1  IDiag  1:
 RMSU=  4.34D-06    CP:  9.95D-01  1.37D+00  6.54D-01  6.53D-01  7.96D-01
                    CP:  1.37D+00  1.20D+00
 E= -4547.01338054830     Delta-E=       -0.000045139537 Rises=F Damp=F
 DIIS: error= 6.83D-05 at cycle   8 NSaved=   8.
 NSaved= 8 IEnMin= 8 EnMin= -4547.01338054830     IErMin= 8 ErrMin= 6.83D-05
 ErrMax= 6.83D-05  0.00D+00 EMaxC= 1.00D-01 BMatC= 1.09D-05 BMatP= 8.38D-05
 IDIUse=1 WtCom= 1.00D+00 WtEn= 0.00D+00
 Coeff-Com: -0.676D-04 0.393D-03-0.169D-02-0.569D-02-0.222D-01-0.159D+00
 Coeff-Com:  0.129D-01 0.117D+01
 Coeff:     -0.676D-04 0.393D-03-0.169D-02-0.569D-02-0.222D-01-0.159D+00
 Coeff:      0.129D-01 0.117D+01
 Gap=     0.410 Goal=   None    Shift=    0.000
 Gap=     0.126 Goal=   None    Shift=    0.000
 RMSDP=7.12D-06 MaxDP=1.54D-03 DE=-4.51D-05 OVMax= 5.88D-03

 Cycle   9  Pass 1  IDiag  1:
 RMSU=  2.35D-06    CP:  9.95D-01  1.37D+00  6.55D-01  6.54D-01  8.18D-01
                    CP:  1.52D+00  1.66D+00  1.73D+00
 E= -4547.01340166368     Delta-E=       -0.000021115382 Rises=F Damp=F
 DIIS: error= 3.63D-05 at cycle   9 NSaved=   9.
 NSaved= 9 IEnMin= 9 EnMin= -4547.01340166368     IErMin= 9 ErrMin= 3.63D-05
 ErrMax= 3.63D-05  0.00D+00 EMaxC= 1.00D-01 BMatC= 4.57D-06 BMatP= 1.09D-05
 IDIUse=1 WtCom= 1.00D+00 WtEn= 0.00D+00
 Coeff-Com: -0.779D-03 0.174D-02 0.452D-02 0.617D-02-0.206D-02-0.154D+00
 Coeff-Com: -0.149D+00 0.470D+00 0.823D+00
 Coeff:     -0.779D-03 0.174D-02 0.452D-02 0.617D-02-0.206D-02-0.154D+00
 Coeff:     -0.149D+00 0.470D+00 0.823D+00
 Gap=     0.411 Goal=   None    Shift=    0.000
 Gap=     0.126 Goal=   None    Shift=    0.000
 RMSDP=4.28D-06 MaxDP=9.87D-04 DE=-2.11D-05 OVMax= 3.35D-03

 Cycle  10  Pass 1  IDiag  1:
 RMSU=  1.51D-06    CP:  9.95D-01  1.37D+00  6.55D-01  6.54D-01  8.27D-01
                    CP:  1.59D+00  1.90D+00  2.27D+00  1.55D+00
 E= -4547.01340921595     Delta-E=       -0.000007552277 Rises=F Damp=F
 DIIS: error= 2.83D-05 at cycle  10 NSaved=  10.
 NSaved=10 IEnMin=10 EnMin= -4547.01340921595     IErMin=10 ErrMin= 2.83D-05
 ErrMax= 2.83D-05  0.00D+00 EMaxC= 1.00D-01 BMatC= 2.69D-06 BMatP= 4.57D-06
 IDIUse=1 WtCom= 1.00D+00 WtEn= 0.00D+00
 Coeff-Com: -0.338D-03 0.703D-03 0.235D-02 0.438D-02 0.327D-02-0.330D-01
 Coeff-Com: -0.671D-01-0.956D-01 0.479D+00 0.706D+00
 Coeff:     -0.338D-03 0.703D-03 0.235D-02 0.438D-02 0.327D-02-0.330D-01
 Coeff:     -0.671D-01-0.956D-01 0.479D+00 0.706D+00
 Gap=     0.410 Goal=   None    Shift=    0.000
 Gap=     0.126 Goal=   None    Shift=    0.000
 RMSDP=2.79D-06 MaxDP=6.31D-04 DE=-7.55D-06 OVMax= 2.18D-03

 Cycle  11  Pass 1  IDiag  1:
 RMSU=  8.22D-07    CP:  9.95D-01  1.37D+00  6.55D-01  6.54D-01  8.31D-01
                    CP:  1.63D+00  2.04D+00  2.59D+00  2.16D+00  1.52D+00
 E= -4547.01341302951     Delta-E=       -0.000003813551 Rises=F Damp=F
 DIIS: error= 1.84D-05 at cycle  11 NSaved=  11.
 NSaved=11 IEnMin=11 EnMin= -4547.01341302951     IErMin=11 ErrMin= 1.84D-05
 ErrMax= 1.84D-05  0.00D+00 EMaxC= 1.00D-01 BMatC= 9.53D-07 BMatP= 2.69D-06
 IDIUse=1 WtCom= 1.00D+00 WtEn= 0.00D+00
 Coeff-Com:  0.179D-03-0.418D-03-0.901D-03-0.602D-03 0.148D-02 0.488D-01
 Coeff-Com:  0.388D-01-0.257D+00-0.748D-02-0.519D-02 0.118D+01
 Coeff:      0.179D-03-0.418D-03-0.901D-03-0.602D-03 0.148D-02 0.488D-01
 Coeff:      0.388D-01-0.257D+00-0.748D-02-0.519D-02 0.118D+01
 Gap=     0.410 Goal=   None    Shift=    0.000
 Gap=     0.126 Goal=   None    Shift=    0.000
 RMSDP=3.63D-06 MaxDP=9.64D-04 DE=-3.81D-06 OVMax= 3.92D-03

 Cycle  12  Pass 1  IDiag  1:
 RMSU=  8.91D-07    CP:  9.95D-01  1.37D+00  6.55D-01  6.53D-01  8.34D-01
                    CP:  1.66D+00  2.17D+00  2.96D+00  2.94D+00  2.75D+00
                    CP:  2.05D+00
 E= -4547.01341693127     Delta-E=       -0.000003901763 Rises=F Damp=F
 DIIS: error= 1.72D-05 at cycle  12 NSaved=  12.
 NSaved=12 IEnMin=12 EnMin= -4547.01341693127     IErMin=12 ErrMin= 1.72D-05
 ErrMax= 1.72D-05  0.00D+00 EMaxC= 1.00D-01 BMatC= 2.15D-06 BMatP= 9.53D-07
 IDIUse=1 WtCom= 1.00D+00 WtEn= 0.00D+00
 Coeff-Com:  0.219D-03-0.481D-03-0.129D-02-0.176D-02-0.447D-03 0.387D-01
 Coeff-Com:  0.473D-01-0.135D+00-0.683D-01-0.521D+00 0.118D+01 0.462D+00
 Coeff:      0.219D-03-0.481D-03-0.129D-02-0.176D-02-0.447D-03 0.387D-01
 Coeff:      0.473D-01-0.135D+00-0.683D-01-0.521D+00 0.118D+01 0.462D+00
 Gap=     0.410 Goal=   None    Shift=    0.000
 Gap=     0.126 Goal=   None    Shift=    0.000
 RMSDP=2.07D-06 MaxDP=4.95D-04 DE=-3.90D-06 OVMax= 2.27D-03

 Cycle  13  Pass 1  IDiag  1:
 RMSU=  1.29D-06    CP:  9.95D-01  1.37D+00  6.55D-01  6.53D-01  8.36D-01
                    CP:  1.67D+00  2.24D+00  3.00D+00  3.00D+00  3.00D+00
                    CP:  3.00D+00  1.54D+00
 E= -4547.01341916881     Delta-E=       -0.000002237537 Rises=F Damp=F
 DIIS: error= 1.53D-05 at cycle  13 NSaved=  13.
 NSaved=13 IEnMin=13 EnMin= -4547.01341916881     IErMin=13 ErrMin= 1.53D-05
 ErrMax= 1.53D-05  0.00D+00 EMaxC= 1.00D-01 BMatC= 1.72D-06 BMatP= 9.53D-07
 IDIUse=1 WtCom= 1.00D+00 WtEn= 0.00D+00
 Coeff-Com:  0.248D-04-0.458D-04-0.191D-03-0.479D-03-0.675D-03-0.225D-02
 Coeff-Com:  0.590D-02 0.973D-02 0.986D-01-0.540D+00 0.726D+00-0.109D+01
 Coeff-Com:  0.179D+01
 Coeff:      0.248D-04-0.458D-04-0.191D-03-0.479D-03-0.675D-03-0.225D-02
 Coeff:      0.590D-02 0.973D-02 0.986D-01-0.540D+00 0.726D+00-0.109D+01
 Coeff:      0.179D+01
 Gap=     0.410 Goal=   None    Shift=    0.000
 Gap=     0.126 Goal=   None    Shift=    0.000
 RMSDP=3.36D-06 MaxDP=8.19D-04 DE=-2.24D-06 OVMax= 3.92D-03

 Cycle  14  Pass 1  IDiag  1:
 RMSU=  1.53D-06    CP:  9.95D-01  1.37D+00  6.55D-01  6.53D-01  8.37D-01
                    CP:  1.69D+00  2.31D+00  3.00D+00  3.00D+00  3.00D+00
                    CP:  3.00D+00  2.84D+00  3.00D+00
 E= -4547.01342264349     Delta-E=       -0.000003474681 Rises=F Damp=F
 DIIS: error= 1.49D-05 at cycle  14 NSaved=  14.
 NSaved=14 IEnMin=14 EnMin= -4547.01342264349     IErMin=14 ErrMin= 1.49D-05
 ErrMax= 1.49D-05  0.00D+00 EMaxC= 1.00D-01 BMatC= 1.90D-06 BMatP= 9.53D-07
 IDIUse=1 WtCom= 1.00D+00 WtEn= 0.00D+00
 Coeff-Com: -0.472D-05 0.170D-04-0.461D-05-0.174D-03-0.420D-03-0.581D-02
 Coeff-Com:  0.146D-03 0.134D-01 0.124D+00-0.490D+00 0.676D+00-0.132D+01
 Coeff-Com:  0.177D+01 0.226D+00
 Coeff:     -0.472D-05 0.170D-04-0.461D-05-0.174D-03-0.420D-03-0.581D-02
 Coeff:      0.146D-03 0.134D-01 0.124D+00-0.490D+00 0.676D+00-0.132D+01
 Coeff:      0.177D+01 0.226D+00
 Gap=     0.410 Goal=   None    Shift=    0.000
 Gap=     0.126 Goal=   None    Shift=    0.000
 RMSDP=9.39D-07 MaxDP=2.17D-04 DE=-3.47D-06 OVMax= 1.10D-03

 Cycle  15  Pass 1  IDiag  1:
 RMSU=  7.35D-07    CP:  9.95D-01  1.37D+00  6.55D-01  6.53D-01  8.38D-01
                    CP:  1.69D+00  2.33D+00  3.00D+00  3.00D+00  3.00D+00
                    CP:  3.00D+00  3.00D+00  3.00D+00  1.31D+00
 E= -4547.01342362090     Delta-E=       -0.000000977410 Rises=F Damp=F
 DIIS: error= 1.48D-05 at cycle  15 NSaved=  15.
 NSaved=15 IEnMin=15 EnMin= -4547.01342362090     IErMin=15 ErrMin= 1.48D-05
 ErrMax= 1.48D-05  0.00D+00 EMaxC= 1.00D-01 BMatC= 1.88D-06 BMatP= 9.53D-07
 IDIUse=1 WtCom= 1.00D+00 WtEn= 0.00D+00
 Coeff-Com: -0.267D-05 0.456D-05 0.353D-04 0.706D-04 0.280D-03 0.342D-03
 Coeff-Com:  0.213D-02-0.272D-01 0.119D+00-0.388D+00 0.736D+00-0.121D+01
 Coeff-Com:  0.113D+01-0.292D+01 0.355D+01
 Coeff:     -0.267D-05 0.456D-05 0.353D-04 0.706D-04 0.280D-03 0.342D-03
 Coeff:      0.213D-02-0.272D-01 0.119D+00-0.388D+00 0.736D+00-0.121D+01
 Coeff:      0.113D+01-0.292D+01 0.355D+01
 Gap=     0.410 Goal=   None    Shift=    0.000
 Gap=     0.126 Goal=   None    Shift=    0.000
 RMSDP=3.83D-06 MaxDP=8.82D-04 DE=-9.77D-07 OVMax= 4.51D-03

 Cycle  16  Pass 1  IDiag  1:
 RMSU=  1.78D-06    CP:  9.95D-01  1.37D+00  6.55D-01  6.54D-01  8.39D-01
                    CP:  1.71D+00  2.39D+00  3.00D+00  3.00D+00  3.00D+00
                    CP:  3.00D+00  3.00D+00  3.00D+00  2.61D+00  3.00D+00
 E= -4547.01342759246     Delta-E=       -0.000003971567 Rises=F Damp=F
 DIIS: error= 1.49D-05 at cycle  16 NSaved=  16.
 NSaved=16 IEnMin=16 EnMin= -4547.01342759246     IErMin=15 ErrMin= 1.48D-05
 ErrMax= 1.49D-05  0.00D+00 EMaxC= 1.00D-01 BMatC= 1.90D-06 BMatP= 9.53D-07
 IDIUse=1 WtCom= 1.00D+00 WtEn= 0.00D+00
 Coeff-Com:  0.112D-04-0.267D-04-0.352D-04-0.914D-05 0.355D-03 0.344D-02
 Coeff-Com:  0.534D-02-0.392D-01 0.107D+00-0.387D+00 0.775D+00-0.107D+01
 Coeff-Com:  0.958D+00-0.386D+01 0.394D+01 0.561D+00
 Coeff:      0.112D-04-0.267D-04-0.352D-04-0.914D-05 0.355D-03 0.344D-02
 Coeff:      0.534D-02-0.392D-01 0.107D+00-0.387D+00 0.775D+00-0.107D+01
 Coeff:      0.958D+00-0.386D+01 0.394D+01 0.561D+00
 Gap=     0.410 Goal=   None    Shift=    0.000
 Gap=     0.126 Goal=   None    Shift=    0.000
 RMSDP=2.75D-06 MaxDP=6.25D-04 DE=-3.97D-06 OVMax= 3.24D-03

 Cycle  17  Pass 1  IDiag  1:
 RMSU=  9.22D-07    CP:  9.95D-01  1.37D+00  6.55D-01  6.54D-01  8.39D-01
                    CP:  1.71D+00  2.44D+00  3.00D+00  3.00D+00  3.00D+00
                    CP:  3.00D+00  3.00D+00  3.00D+00  3.00D+00  3.00D+00
                    CP:  2.27D+00
 E= -4547.01343044419     Delta-E=       -0.000002851732 Rises=F Damp=F
 DIIS: error= 1.49D-05 at cycle  17 NSaved=  17.
 NSaved=17 IEnMin=17 EnMin= -4547.01343044419     IErMin=15 ErrMin= 1.48D-05
 ErrMax= 1.49D-05  0.00D+00 EMaxC= 1.00D-01 BMatC= 1.89D-06 BMatP= 9.53D-07
 IDIUse=1 WtCom= 1.00D+00 WtEn= 0.00D+00
 Coeff-Com:  0.198D-04-0.409D-04-0.104D-03-0.230D-03-0.431D-04 0.158D-02
 Coeff-Com:  0.661D-02-0.209D-01 0.105D+00-0.456D+00 0.759D+00-0.103D+01
 Coeff-Com:  0.123D+01-0.202D+01 0.148D+01-0.191D+01 0.285D+01
 Coeff:      0.198D-04-0.409D-04-0.104D-03-0.230D-03-0.431D-04 0.158D-02
 Coeff:      0.661D-02-0.209D-01 0.105D+00-0.456D+00 0.759D+00-0.103D+01
 Coeff:      0.123D+01-0.202D+01 0.148D+01-0.191D+01 0.285D+01
 Gap=     0.409 Goal=   None    Shift=    0.000
 Gap=     0.126 Goal=   None    Shift=    0.000
 RMSDP=6.87D-06 MaxDP=1.55D-03 DE=-2.85D-06 OVMax= 8.09D-03

 Cycle  18  Pass 1  IDiag  1:
 RMSU=  4.77D-06    CP:  9.95D-01  1.37D+00  6.55D-01  6.54D-01  8.40D-01
                    CP:  1.74D+00  2.55D+00  3.00D+00  3.00D+00  3.00D+00
                    CP:  3.00D+00  3.00D+00  3.00D+00  3.00D+00  3.00D+00
                    CP:  3.00D+00  3.00D+00
 E= -4547.01343755313     Delta-E=       -0.000007108934 Rises=F Damp=F
 DIIS: error= 1.48D-05 at cycle  18 NSaved=  18.
 NSaved=18 IEnMin=18 EnMin= -4547.01343755313     IErMin=18 ErrMin= 1.48D-05
 ErrMax= 1.48D-05  0.00D+00 EMaxC= 1.00D-01 BMatC= 1.87D-06 BMatP= 9.53D-07
 IDIUse=1 WtCom= 1.00D+00 WtEn= 0.00D+00
 Coeff-Com: -0.514D-06 0.644D-05-0.706D-05-0.179D-03-0.378D-03-0.482D-02
 Coeff-Com:  0.166D-02 0.818D-02 0.126D+00-0.498D+00 0.676D+00-0.127D+01
 Coeff-Com:  0.164D+01 0.927D+00-0.901D+00-0.411D+01 0.230D+01 0.210D+01
 Coeff:     -0.514D-06 0.644D-05-0.706D-05-0.179D-03-0.378D-03-0.482D-02
 Coeff:      0.166D-02 0.818D-02 0.126D+00-0.498D+00 0.676D+00-0.127D+01
 Coeff:      0.164D+01 0.927D+00-0.901D+00-0.411D+01 0.230D+01 0.210D+01
 Gap=     0.408 Goal=   None    Shift=    0.000
 Gap=     0.126 Goal=   None    Shift=    0.000
 RMSDP=1.39D-05 MaxDP=3.13D-03 DE=-7.11D-06 OVMax= 1.64D-02

 Cycle  19  Pass 1  IDiag  1:
 RMSU=  4.66D-06    CP:  9.95D-01  1.37D+00  6.55D-01  6.54D-01  8.43D-01
                    CP:  1.78D+00  2.78D+00  3.00D+00  3.00D+00  3.00D+00
                    CP:  3.00D+00  3.00D+00  3.00D+00  3.00D+00  3.00D+00
                    CP:  3.00D+00  3.00D+00  3.00D+00
 E= -4547.01345189446     Delta-E=       -0.000014341329 Rises=F Damp=F
 DIIS: error= 1.45D-05 at cycle  19 NSaved=  19.
 NSaved=19 IEnMin=19 EnMin= -4547.01345189446     IErMin=19 ErrMin= 1.45D-05
 ErrMax= 1.45D-05  0.00D+00 EMaxC= 1.00D-01 BMatC= 1.80D-06 BMatP= 9.53D-07
 IDIUse=1 WtCom= 1.00D+00 WtEn= 0.00D+00
 Large coefficients: NSaved= 19 BigCof=   13.92 CofMax=   10.00 Det=-1.24D-10
 Inversion failed.  Reducing to 18 matrices.
 Large coefficients: NSaved= 18 BigCof=   13.25 CofMax=   10.00 Det=-9.99D-11
 Inversion failed.  Reducing to 17 matrices.
 Large coefficients: NSaved= 17 BigCof=   13.20 CofMax=   10.00 Det=-1.01D-10
 Inversion failed.  Reducing to 16 matrices.
 Large coefficients: NSaved= 16 BigCof=   13.22 CofMax=   10.00 Det=-1.01D-10
 Inversion failed.  Reducing to 15 matrices.
 Large coefficients: NSaved= 15 BigCof=   10.52 CofMax=   10.00 Det=-1.41D-10
 Inversion failed.  Reducing to 14 matrices.
 Coeff-Com: -0.223D-02 0.923D-03-0.617D-02 0.114D+00-0.375D+00 0.579D+00
 Coeff-Com: -0.145D+01 0.119D+01-0.130D+01 0.415D+01 0.306D+01-0.956D+01
 Coeff-Com: -0.196D+00 0.480D+01
 Coeff:     -0.223D-02 0.923D-03-0.617D-02 0.114D+00-0.375D+00 0.579D+00
 Coeff:     -0.145D+01 0.119D+01-0.130D+01 0.415D+01 0.306D+01-0.956D+01
 Coeff:     -0.196D+00 0.480D+01
 Gap=     0.404 Goal=   None    Shift=    0.000
 Gap=     0.127 Goal=   None    Shift=    0.000
 RMSDP=5.43D-05 MaxDP=1.22D-02 DE=-1.43D-05 OVMax= 6.39D-02

 Cycle  20  Pass 1  IDiag  1:
 RMSU=  4.54D-05    CP:  9.95D-01  1.37D+00  6.54D-01  6.55D-01  8.48D-01
                    CP:  1.93D+00  3.00D+00  3.00D+00  3.00D+00  3.00D+00
                    CP:  3.00D+00  3.00D+00  3.00D+00  3.00D+00  3.00D+00
                    CP:  3.00D+00  3.00D+00  3.00D+00  3.00D+00
 E= -4547.01350571656     Delta-E=       -0.000053822107 Rises=F Damp=F
 DIIS: error= 1.59D-05 at cycle  20 NSaved=  15.
 NSaved=15 IEnMin=15 EnMin= -4547.01350571656     IErMin=14 ErrMin= 1.45D-05
 ErrMax= 1.59D-05  0.00D+00 EMaxC= 1.00D-01 BMatC= 8.22D-07 BMatP= 9.53D-07
 IDIUse=1 WtCom= 1.00D+00 WtEn= 0.00D+00
 Coeff-Com:  0.104D-02 0.686D-02 0.143D-02 0.623D-01-0.202D+00 0.366D+00
 Coeff-Com: -0.988D+00 0.703D+00-0.557D+01 0.773D+01 0.173D+01-0.246D+01
 Coeff-Com: -0.247D+01 0.134D+01 0.741D+00
 Coeff:      0.104D-02 0.686D-02 0.143D-02 0.623D-01-0.202D+00 0.366D+00
 Coeff:     -0.988D+00 0.703D+00-0.557D+01 0.773D+01 0.173D+01-0.246D+01
 Coeff:     -0.247D+01 0.134D+01 0.741D+00
 Gap=     0.405 Goal=   None    Shift=    0.000
 Gap=     0.126 Goal=   None    Shift=    0.000
 RMSDP=1.90D-05 MaxDP=4.21D-03 DE=-5.38D-05 OVMax= 2.21D-02

 Cycle  21  Pass 1  IDiag  1:
 Restarting incremental Fock formation.
 E= -4547.01348735491     Delta-E=        0.000018361654 Rises=F Damp=F
 DIIS: error= 1.82D-05 at cycle  21 NSaved=  16.
 NSaved=16 IEnMin=15 EnMin= -4547.01350571656     IErMin=14 ErrMin= 1.45D-05
 ErrMax= 1.82D-05  0.00D+00 EMaxC= 1.00D-01 BMatC= 2.65D-06 BMatP= 8.22D-07
 IDIUse=1 WtCom= 1.00D+00 WtEn= 0.00D+00
 Coeff-Com:  0.235D-02 0.870D-02 0.744D-03 0.384D-01-0.150D+00 0.295D+00
 Coeff-Com: -0.782D+00 0.498D+00-0.667D+01 0.865D+01 0.207D+01-0.171D+01
 Coeff-Com: -0.365D+01 0.836D+00 0.111D+01 0.450D+00
 Coeff:      0.235D-02 0.870D-02 0.744D-03 0.384D-01-0.150D+00 0.295D+00
 Coeff:     -0.782D+00 0.498D+00-0.667D+01 0.865D+01 0.207D+01-0.171D+01
 Coeff:     -0.365D+01 0.836D+00 0.111D+01 0.450D+00
 Gap=     0.401 Goal=   None    Shift=    0.000
 Gap=     0.127 Goal=   None    Shift=    0.000
 RMSDP=3.58D-05 MaxDP=7.99D-03 DE= 1.84D-05 OVMax= 4.22D-02

 Cycle  22  Pass 1  IDiag  1:
 RMSU=  3.58D-05    CP:  1.00D+00
 E= -4547.01352087347     Delta-E=       -0.000033518558 Rises=F Damp=F
 DIIS: error= 1.35D-05 at cycle  22 NSaved=  17.
 NSaved=17 IEnMin=17 EnMin= -4547.01352087347     IErMin=17 ErrMin= 1.35D-05
 ErrMax= 1.35D-05  0.00D+00 EMaxC= 1.00D-01 BMatC= 1.29D-06 BMatP= 8.22D-07
 IDIUse=1 WtCom= 1.00D+00 WtEn= 0.00D+00
 Large coefficients: NSaved= 17 BigCof=   23.08 CofMax=   10.00 Det=-9.52D-11
 Inversion failed.  Reducing to 16 matrices.
 Large coefficients: NSaved= 16 BigCof=   22.35 CofMax=   10.00 Det=-9.64D-11
 Inversion failed.  Reducing to 15 matrices.
 Large coefficients: NSaved= 15 BigCof=   21.47 CofMax=   10.00 Det=-9.82D-11
 Inversion failed.  Reducing to 14 matrices.
 Large coefficients: NSaved= 14 BigCof=   20.98 CofMax=   10.00 Det=-9.96D-11
 Inversion failed.  Reducing to 13 matrices.
 Large coefficients: NSaved= 13 BigCof=   20.56 CofMax=   10.00 Det=-1.00D-10
 Inversion failed.  Reducing to 12 matrices.
 Large coefficients: NSaved= 12 BigCof=   15.71 CofMax=   10.00 Det=-1.06D-10
 Inversion failed.  Reducing to 11 matrices.
 Large coefficients: NSaved= 11 BigCof=   16.53 CofMax=   10.00 Det=-1.07D-10
 Inversion failed.  Reducing to 10 matrices.
 Large coefficients: NSaved= 10 BigCof=   20.14 CofMax=   10.00 Det=-1.18D-10
 Inversion failed.  Reducing to  9 matrices.
 Large coefficients: NSaved=  9 BigCof=   15.04 CofMax=   10.00 Det=-1.49D-10
 Inversion failed.  Reducing to  8 matrices.
 Large coefficients: NSaved=  8 BigCof=   17.92 CofMax=   10.00 Det=-1.54D-10
 Inversion failed.  Reducing to  7 matrices.
 Large coefficients: NSaved=  7 BigCof=   16.19 CofMax=   10.00 Det=-4.34D-10
 Inversion failed.  Reducing to  6 matrices.
 Coeff-Com: -0.109D+01-0.643D+00 0.404D+00 0.338D+00-0.602D+00 0.260D+01
 Coeff:     -0.109D+01-0.643D+00 0.404D+00 0.338D+00-0.602D+00 0.260D+01
 Gap=     0.386 Goal=   None    Shift=    0.000
 Gap=     0.132 Goal=   None    Shift=    0.000
 RMSDP=1.34D-04 MaxDP=2.86D-02 DE=-3.35D-05 OVMax= 1.55D-01

 Cycle  23  Pass 1  IDiag  1:
 RMSU=  6.49D-05    CP:  1.00D+00  3.00D+00
 E= -4547.01351803807     Delta-E=        0.000002835401 Rises=F Damp=F
 DIIS: error= 1.54D-04 at cycle  23 NSaved=   7.
 NSaved= 7 IEnMin= 6 EnMin= -4547.01352087347     IErMin= 6 ErrMin= 1.35D-05
 ErrMax= 1.54D-04  0.00D+00 EMaxC= 1.00D-01 BMatC= 1.88D-04 BMatP= 8.22D-07
 IDIUse=1 WtCom= 1.00D+00 WtEn= 0.00D+00
 Coeff-Com: -0.883D+00 0.113D+01-0.379D+00-0.425D+00 0.930D+00 0.514D+00
 Coeff-Com:  0.117D+00
 Coeff:     -0.883D+00 0.113D+01-0.379D+00-0.425D+00 0.930D+00 0.514D+00
 Coeff:      0.117D+00
 Gap=     0.402 Goal=   None    Shift=    0.000
 Gap=     0.121 Goal=   None    Shift=    0.000
 RMSDP=1.31D-04 MaxDP=2.78D-02 DE= 2.84D-06 OVMax= 1.51D-01

 Cycle  24  Pass 1  IDiag  1:
 RMSU=  6.23D-07    CP:  1.00D+00  1.09D+00  3.46D-04
 E= -4547.01352352666     Delta-E=       -0.000005488588 Rises=F Damp=F
 DIIS: error= 1.78D-05 at cycle  24 NSaved=   8.
 NSaved= 8 IEnMin= 8 EnMin= -4547.01352352666     IErMin= 6 ErrMin= 1.35D-05
 ErrMax= 1.78D-05  0.00D+00 EMaxC= 1.00D-01 BMatC= 2.94D-06 BMatP= 8.22D-07
 IDIUse=1 WtCom= 1.00D+00 WtEn= 0.00D+00
 Coeff-Com: -0.245D+01 0.289D+01 0.678D-01-0.156D+01-0.713D+00 0.166D+01
 Coeff-Com:  0.145D+00 0.962D+00
 Coeff:     -0.245D+01 0.289D+01 0.678D-01-0.156D+01-0.713D+00 0.166D+01
 Coeff:      0.145D+00 0.962D+00
 Gap=     0.396 Goal=   None    Shift=    0.000
 Gap=     0.127 Goal=   None    Shift=    0.000
 RMSDP=4.67D-05 MaxDP=1.04D-02 DE=-5.49D-06 OVMax= 5.52D-02

 Cycle  25  Pass 1  IDiag  1:
 RMSU=  3.91D-06    CP:  1.00D+00  2.39D+00  2.46D-02  3.00D+00
 E= -4547.01355789245     Delta-E=       -0.000034365790 Rises=F Damp=F
 DIIS: error= 9.79D-06 at cycle  25 NSaved=   9.
 NSaved= 9 IEnMin= 9 EnMin= -4547.01355789245     IErMin= 9 ErrMin= 9.79D-06
 ErrMax= 9.79D-06  0.00D+00 EMaxC= 1.00D-01 BMatC= 5.69D-07 BMatP= 8.22D-07
 IDIUse=1 WtCom= 1.00D+00 WtEn= 0.00D+00
 Coeff-Com: -0.507D+01 0.331D+01 0.320D+01-0.178D+01-0.488D+00-0.102D+00
 Coeff-Com:  0.109D+00 0.482D+00 0.135D+01
 Coeff:     -0.507D+01 0.331D+01 0.320D+01-0.178D+01-0.488D+00-0.102D+00
 Coeff:      0.109D+00 0.482D+00 0.135D+01
 Gap=     0.391 Goal=   None    Shift=    0.000
 Gap=     0.129 Goal=   None    Shift=    0.000
 RMSDP=3.76D-05 MaxDP=8.28D-03 DE=-3.44D-05 OVMax= 4.41D-02

 Cycle  26  Pass 1  IDiag  1:
 RMSU=  1.46D-06    CP:  1.00D+00  3.00D+00  2.82D-01  3.00D+00  1.20D+00
 E= -4547.01357190002     Delta-E=       -0.000014007577 Rises=F Damp=F
 DIIS: error= 2.09D-05 at cycle  26 NSaved=  10.
 NSaved=10 IEnMin=10 EnMin= -4547.01357190002     IErMin= 9 ErrMin= 9.79D-06
 ErrMax= 2.09D-05  0.00D+00 EMaxC= 1.00D-01 BMatC= 3.60D-06 BMatP= 5.69D-07
 IDIUse=1 WtCom= 1.00D+00 WtEn= 0.00D+00
 Coeff-Com: -0.337D+01 0.231D+01 0.234D+01-0.144D+01-0.129D-01-0.519D+00
 Coeff-Com:  0.219D-01 0.220D+00 0.982D+00 0.476D+00
 Coeff:     -0.337D+01 0.231D+01 0.234D+01-0.144D+01-0.129D-01-0.519D+00
 Coeff:      0.219D-01 0.220D+00 0.982D+00 0.476D+00
 Gap=     0.394 Goal=   None    Shift=    0.000
 Gap=     0.127 Goal=   None    Shift=    0.000
 RMSDP=2.05D-05 MaxDP=4.26D-03 DE=-1.40D-05 OVMax= 2.35D-02

 Cycle  27  Pass 1  IDiag  1:
 RMSU=  4.75D-07    CP:  1.00D+00  2.86D+00  3.93D-02  3.00D+00  1.64D+00
                    CP:  1.28D+00
 E= -4547.01356638491     Delta-E=        0.000005515110 Rises=F Damp=F
 DIIS: error= 1.27D-05 at cycle  27 NSaved=  11.
 NSaved=11 IEnMin=10 EnMin= -4547.01357190002     IErMin= 9 ErrMin= 9.79D-06
 ErrMax= 1.27D-05  0.00D+00 EMaxC= 1.00D-01 BMatC= 1.32D-06 BMatP= 5.69D-07
 IDIUse=1 WtCom= 1.00D+00 WtEn= 0.00D+00
 Coeff-Com:  0.106D+01-0.887D+00-0.237D+00 0.604D-01-0.704D-01 0.606D-01
 Coeff-Com:  0.429D-01-0.495D+00-0.595D-03 0.578D-01 0.140D+01
 Coeff:      0.106D+01-0.887D+00-0.237D+00 0.604D-01-0.704D-01 0.606D-01
 Coeff:      0.429D-01-0.495D+00-0.595D-03 0.578D-01 0.140D+01
 Gap=     0.390 Goal=   None    Shift=    0.000
 Gap=     0.128 Goal=   None    Shift=    0.000
 RMSDP=3.27D-05 MaxDP=7.16D-03 DE= 5.52D-06 OVMax= 3.88D-02

 Cycle  28  Pass 1  IDiag  1:
 RMSU=  1.20D-06    CP:  1.00D+00  3.00D+00  4.66D-01  3.00D+00  7.69D-01
                    CP:  2.71D+00 -3.72D-01
 E= -4547.01357475575     Delta-E=       -0.000008370838 Rises=F Damp=F
 DIIS: error= 4.28D-06 at cycle  28 NSaved=  12.
 NSaved=12 IEnMin=12 EnMin= -4547.01357475575     IErMin=12 ErrMin= 4.28D-06
 ErrMax= 4.28D-06  0.00D+00 EMaxC= 1.00D-01 BMatC= 1.84D-07 BMatP= 5.69D-07
 IDIUse=1 WtCom= 1.00D+00 WtEn= 0.00D+00
 Coeff-Com:  0.142D+01-0.133D+01-0.391D+00 0.459D+00 0.464D-02 0.183D+00
 Coeff-Com:  0.610D-01-0.303D+00-0.430D+00-0.557D+00 0.802D+00 0.108D+01
 Coeff:      0.142D+01-0.133D+01-0.391D+00 0.459D+00 0.464D-02 0.183D+00
 Coeff:      0.610D-01-0.303D+00-0.430D+00-0.557D+00 0.802D+00 0.108D+01
 Gap=     0.390 Goal=   None    Shift=    0.000
 Gap=     0.128 Goal=   None    Shift=    0.000
 RMSDP=1.64D-06 MaxDP=4.23D-04 DE=-8.37D-06 OVMax= 1.99D-03

 Cycle  29  Pass 1  IDiag  1:
 RMSU=  3.80D-07    CP:  1.00D+00  3.00D+00  4.88D-01  3.00D+00  7.24D-01
                    CP:  3.00D+00 -3.78D-01  1.19D+00
 E= -4547.01357491964     Delta-E=       -0.000000163893 Rises=F Damp=F
 DIIS: error= 2.24D-06 at cycle  29 NSaved=  13.
 NSaved=13 IEnMin=13 EnMin= -4547.01357491964     IErMin=13 ErrMin= 2.24D-06
 ErrMax= 2.24D-06  0.00D+00 EMaxC= 1.00D-01 BMatC= 3.89D-08 BMatP= 1.84D-07
 IDIUse=1 WtCom= 1.00D+00 WtEn= 0.00D+00
 Coeff-Com:  0.141D+00-0.326D+00 0.952D-01 0.947D-01-0.125D+00 0.197D+00
 Coeff-Com:  0.603D-01 0.819D-02-0.653D-01-0.388D+00 0.133D+00 0.291D+00
 Coeff-Com:  0.884D+00
 Coeff:      0.141D+00-0.326D+00 0.952D-01 0.947D-01-0.125D+00 0.197D+00
 Coeff:      0.603D-01 0.819D-02-0.653D-01-0.388D+00 0.133D+00 0.291D+00
 Coeff:      0.884D+00
 Gap=     0.389 Goal=   None    Shift=    0.000
 Gap=     0.129 Goal=   None    Shift=    0.000
 RMSDP=7.44D-06 MaxDP=1.55D-03 DE=-1.64D-07 OVMax= 8.59D-03

 Cycle  30  Pass 1  IDiag  1:
 RMSU=  6.64D-08    CP:  1.00D+00  3.00D+00  6.02D-01  3.00D+00  5.13D-01
                    CP:  3.00D+00 -7.12D-01  1.29D+00  1.35D+00
 E= -4547.01357464819     Delta-E=        0.000000271450 Rises=F Damp=F
 DIIS: error= 1.02D-05 at cycle  30 NSaved=  14.
 NSaved=14 IEnMin=13 EnMin= -4547.01357491964     IErMin=13 ErrMin= 2.24D-06
 ErrMax= 1.02D-05  0.00D+00 EMaxC= 1.00D-01 BMatC= 8.24D-07 BMatP= 3.89D-08
 IDIUse=1 WtCom= 1.00D+00 WtEn= 0.00D+00
 Coeff-Com: -0.452D+00 0.187D+00 0.323D+00-0.121D+00-0.528D-01 0.380D-01
 Coeff-Com: -0.160D-01 0.801D-01 0.129D+00-0.151D+00 0.819D-01-0.369D+00
 Coeff-Com:  0.279D+00 0.104D+01
 Coeff:     -0.452D+00 0.187D+00 0.323D+00-0.121D+00-0.528D-01 0.380D-01
 Coeff:     -0.160D-01 0.801D-01 0.129D+00-0.151D+00 0.819D-01-0.369D+00
 Coeff:      0.279D+00 0.104D+01
 Gap=     0.389 Goal=   None    Shift=    0.000
 Gap=     0.129 Goal=   None    Shift=    0.000
 RMSDP=9.45D-07 MaxDP=1.63D-04 DE= 2.71D-07 OVMax= 1.06D-03

 Cycle  31  Pass 1  IDiag  1:
 RMSU=  4.85D-08    CP:  1.00D+00  3.00D+00  5.87D-01  3.00D+00  5.38D-01
                    CP:  3.00D+00 -6.32D-01  1.28D+00  1.65D+00  1.87D+00
 E= -4547.01357477586     Delta-E=       -0.000000127664 Rises=F Damp=F
 DIIS: error= 8.37D-06 at cycle  31 NSaved=  15.
 NSaved=15 IEnMin=13 EnMin= -4547.01357491964     IErMin=13 ErrMin= 2.24D-06
 ErrMax= 8.37D-06  0.00D+00 EMaxC= 1.00D-01 BMatC= 5.57D-07 BMatP= 3.89D-08
 IDIUse=1 WtCom= 1.00D+00 WtEn= 0.00D+00
 Coeff-Com: -0.690D-02-0.694D-01 0.685D-01-0.275D-01-0.508D-01 0.591D-01
 Coeff-Com: -0.282D-01 0.301D-02 0.577D-01-0.157D+00 0.251D+00-0.271D+00
 Coeff-Com: -0.134D+00 0.382D+00 0.924D+00
 Coeff:     -0.690D-02-0.694D-01 0.685D-01-0.275D-01-0.508D-01 0.591D-01
 Coeff:     -0.282D-01 0.301D-02 0.577D-01-0.157D+00 0.251D+00-0.271D+00
 Coeff:     -0.134D+00 0.382D+00 0.924D+00
 Gap=     0.389 Goal=   None    Shift=    0.000
 Gap=     0.128 Goal=   None    Shift=    0.000
 RMSDP=1.42D-06 MaxDP=2.55D-04 DE=-1.28D-07 OVMax= 1.55D-03

 Cycle  32  Pass 1  IDiag  1:
 RMSU=  6.44D-08    CP:  1.00D+00  3.00D+00  5.66D-01  3.00D+00  5.77D-01
                    CP:  3.00D+00 -5.32D-01  1.32D+00  2.02D+00  1.93D+00
                    CP:  1.61D+00
 E= -4547.01357494143     Delta-E=       -0.000000165570 Rises=F Damp=F
 DIIS: error= 4.18D-06 at cycle  32 NSaved=  16.
 NSaved=16 IEnMin=16 EnMin= -4547.01357494143     IErMin=13 ErrMin= 2.24D-06
 ErrMax= 4.18D-06  0.00D+00 EMaxC= 1.00D-01 BMatC= 1.39D-07 BMatP= 3.89D-08
 IDIUse=1 WtCom= 1.00D+00 WtEn= 0.00D+00
 Coeff-Com:  0.136D+00-0.146D+00-0.176D-02 0.275D-01-0.563D-01 0.658D-01
 Coeff-Com: -0.146D-02-0.467D-01-0.148D-01-0.116D+00 0.207D+00 0.171D-01
 Coeff-Com: -0.166D+00-0.345D+00 0.273D+00 0.117D+01
 Coeff:      0.136D+00-0.146D+00-0.176D-02 0.275D-01-0.563D-01 0.658D-01
 Coeff:     -0.146D-02-0.467D-01-0.148D-01-0.116D+00 0.207D+00 0.171D-01
 Coeff:     -0.166D+00-0.345D+00 0.273D+00 0.117D+01
 Gap=     0.390 Goal=   None    Shift=    0.000
 Gap=     0.128 Goal=   None    Shift=    0.000
 RMSDP=1.08D-06 MaxDP=1.93D-04 DE=-1.66D-07 OVMax= 1.21D-03

 Cycle  33  Pass 1  IDiag  1:
 RMSU=  1.87D-08    CP:  1.00D+00  3.00D+00  5.49D-01  3.00D+00  6.07D-01
                    CP:  3.00D+00 -4.46D-01  1.33D+00  2.27D+00  2.42D+00
                    CP:  2.52D+00  1.61D+00
 E= -4547.01357499585     Delta-E=       -0.000000054421 Rises=F Damp=F
 DIIS: error= 1.56D-06 at cycle  33 NSaved=  17.
 NSaved=17 IEnMin=17 EnMin= -4547.01357499585     IErMin=17 ErrMin= 1.56D-06
 ErrMax= 1.56D-06  0.00D+00 EMaxC= 1.00D-01 BMatC= 1.97D-08 BMatP= 3.89D-08
 IDIUse=1 WtCom= 1.00D+00 WtEn= 0.00D+00
 Coeff-Com:  0.248D-02-0.491D-01 0.676D-01 0.833D-02-0.425D-01 0.257D-01
 Coeff-Com:  0.199D-01-0.294D-01 0.762D-02-0.351D-01 0.321D-01 0.672D-01
 Coeff-Com:  0.368D-01-0.158D+00-0.502D+00 0.230D+00 0.132D+01
 Coeff:      0.248D-02-0.491D-01 0.676D-01 0.833D-02-0.425D-01 0.257D-01
 Coeff:      0.199D-01-0.294D-01 0.762D-02-0.351D-01 0.321D-01 0.672D-01
 Coeff:      0.368D-01-0.158D+00-0.502D+00 0.230D+00 0.132D+01
 Gap=     0.390 Goal=   None    Shift=    0.000
 Gap=     0.128 Goal=   None    Shift=    0.000
 RMSDP=3.46D-07 MaxDP=6.97D-05 DE=-5.44D-08 OVMax= 3.89D-04

 Cycle  34  Pass 1  IDiag  1:
 RMSU=  2.97D-08    CP:  1.00D+00  3.00D+00  5.44D-01  3.00D+00  6.17D-01
                    CP:  3.00D+00 -4.02D-01  1.32D+00  2.35D+00  3.00D+00
                    CP:  3.00D+00  1.88D+00  2.50D+00
 E= -4547.01357500216     Delta-E=       -0.000000006312 Rises=F Damp=F
 DIIS: error= 1.15D-06 at cycle  34 NSaved=  18.
 NSaved=18 IEnMin=18 EnMin= -4547.01357500216     IErMin=18 ErrMin= 1.15D-06
 ErrMax= 1.15D-06  0.00D+00 EMaxC= 1.00D-01 BMatC= 1.05D-08 BMatP= 1.97D-08
 IDIUse=1 WtCom= 1.00D+00 WtEn= 0.00D+00
 Coeff-Com: -0.839D-01 0.472D-01 0.617D-01-0.198D-01-0.264D-01 0.102D-01
 Coeff-Com:  0.133D-01-0.398D-02 0.421D-01-0.147D-01-0.274D-01-0.178D-01
 Coeff-Com:  0.925D-01 0.205D+00-0.435D+00-0.568D+00 0.435D+00 0.129D+01
 Coeff:     -0.839D-01 0.472D-01 0.617D-01-0.198D-01-0.264D-01 0.102D-01
 Coeff:      0.133D-01-0.398D-02 0.421D-01-0.147D-01-0.274D-01-0.178D-01
 Coeff:      0.925D-01 0.205D+00-0.435D+00-0.568D+00 0.435D+00 0.129D+01
 Gap=     0.390 Goal=   None    Shift=    0.000
 Gap=     0.128 Goal=   None    Shift=    0.000
 RMSDP=1.18D-07 MaxDP=3.15D-05 DE=-6.31D-09 OVMax= 9.94D-05

 Cycle  35  Pass 1  IDiag  1:
 RMSU=  3.63D-08    CP:  1.00D+00  3.00D+00  5.46D-01  3.00D+00  6.14D-01
                    CP:  3.00D+00 -3.79D-01  1.33D+00  2.42D+00  3.00D+00
                    CP:  3.00D+00  2.26D+00  3.00D+00  2.96D+00
 E= -4547.01357500248     Delta-E=       -0.000000000318 Rises=F Damp=F
 DIIS: error= 1.29D-06 at cycle  35 NSaved=  19.
 NSaved=19 IEnMin=19 EnMin= -4547.01357500248     IErMin=18 ErrMin= 1.15D-06
 ErrMax= 1.29D-06  0.00D+00 EMaxC= 1.00D-01 BMatC= 1.31D-08 BMatP= 1.05D-08
 IDIUse=1 WtCom= 1.00D+00 WtEn= 0.00D+00
 Coeff-Com: -0.199D-01 0.197D-01-0.643D-03-0.310D-02 0.747D-02-0.525D-02
 Coeff-Com: -0.577D-02-0.250D-04 0.128D-01-0.282D-01 0.256D-01-0.397D-01
 Coeff-Com:  0.103D-01 0.141D+00 0.682D-01-0.256D+00-0.539D+00 0.350D+00
 Coeff-Com:  0.126D+01
 Coeff:     -0.199D-01 0.197D-01-0.643D-03-0.310D-02 0.747D-02-0.525D-02
 Coeff:     -0.577D-02-0.250D-04 0.128D-01-0.282D-01 0.256D-01-0.397D-01
 Coeff:      0.103D-01 0.141D+00 0.682D-01-0.256D+00-0.539D+00 0.350D+00
 Coeff:      0.126D+01
 Gap=     0.390 Goal=   None    Shift=    0.000
 Gap=     0.128 Goal=   None    Shift=    0.000
 RMSDP=8.32D-07 MaxDP=1.59D-04 DE=-3.18D-10 OVMax= 9.52D-04

 Cycle  36  Pass 1  IDiag  1:
 RMSU=  4.51D-08    CP:  1.00D+00  3.00D+00  5.33D-01  3.00D+00  6.38D-01
                    CP:  3.00D+00 -3.17D-01  1.33D+00  2.48D+00  3.00D+00
                    CP:  3.00D+00  2.57D+00  3.00D+00  3.00D+00  1.87D+00
 E= -4547.01357500857     Delta-E=       -0.000000006086 Rises=F Damp=F
 DIIS: error= 1.59D-07 at cycle  36 NSaved=  20.
 NSaved=20 IEnMin=20 EnMin= -4547.01357500857     IErMin=20 ErrMin= 1.59D-07
 ErrMax= 1.59D-07  0.00D+00 EMaxC= 1.00D-01 BMatC= 2.15D-10 BMatP= 1.05D-08
 IDIUse=1 WtCom= 1.00D+00 WtEn= 0.00D+00
 Coeff-Com:  0.295D-02 0.207D-02-0.964D-02 0.180D-03 0.222D-02 0.838D-03
 Coeff-Com: -0.317D-02 0.172D-02 0.341D-04-0.938D-02 0.114D-01-0.105D-01
 Coeff-Com: -0.120D-01 0.187D-01 0.957D-01 0.337D-01-0.253D+00-0.186D+00
 Coeff-Com:  0.386D+00 0.928D+00
 Coeff:      0.295D-02 0.207D-02-0.964D-02 0.180D-03 0.222D-02 0.838D-03
 Coeff:     -0.317D-02 0.172D-02 0.341D-04-0.938D-02 0.114D-01-0.105D-01
 Coeff:     -0.120D-01 0.187D-01 0.957D-01 0.337D-01-0.253D+00-0.186D+00
 Coeff:      0.386D+00 0.928D+00
 Gap=     0.390 Goal=   None    Shift=    0.000
 Gap=     0.128 Goal=   None    Shift=    0.000
 RMSDP=2.41D-07 MaxDP=5.35D-05 DE=-6.09D-09 OVMax= 2.82D-04

 Cycle  37  Pass 1  IDiag  1:
 RMSU=  3.98D-09    CP:  1.00D+00  3.00D+00  5.37D-01  3.00D+00  6.31D-01
                    CP:  3.00D+00 -3.24D-01  1.33D+00  2.51D+00  3.00D+00
                    CP:  3.00D+00  2.73D+00  3.00D+00  3.00D+00  2.07D+00
                    CP:  1.25D+00
 E= -4547.01357500819     Delta-E=        0.000000000377 Rises=F Damp=F
 DIIS: error= 1.13D-07 at cycle  37 NSaved=  20.
 NSaved=20 IEnMin=19 EnMin= -4547.01357500857     IErMin=20 ErrMin= 1.13D-07
 ErrMax= 1.13D-07  0.00D+00 EMaxC= 1.00D-01 BMatC= 9.74D-11 BMatP= 2.15D-10
 IDIUse=1 WtCom= 1.00D+00 WtEn= 0.00D+00
 Coeff-Com:  0.486D-03-0.843D-03-0.633D-03-0.553D-03 0.160D-02-0.746D-04
 Coeff-Com:  0.755D-03-0.189D-02 0.106D-02-0.541D-03 0.262D-02-0.103D-02
 Coeff-Com: -0.191D-01 0.183D-01 0.368D-01 0.213D-01-0.939D-01-0.964D-01
 Coeff-Com:  0.252D+00 0.880D+00
 Coeff:      0.486D-03-0.843D-03-0.633D-03-0.553D-03 0.160D-02-0.746D-04
 Coeff:      0.755D-03-0.189D-02 0.106D-02-0.541D-03 0.262D-02-0.103D-02
 Coeff:     -0.191D-01 0.183D-01 0.368D-01 0.213D-01-0.939D-01-0.964D-01
 Coeff:      0.252D+00 0.880D+00
 Gap=     0.390 Goal=   None    Shift=    0.000
 Gap=     0.128 Goal=   None    Shift=    0.000
 RMSDP=3.68D-08 MaxDP=7.12D-06 DE= 3.77D-10 OVMax= 4.20D-05

 Cycle  38  Pass 1  IDiag  1:
 RMSU=  1.11D-09    CP:  1.00D+00  3.00D+00  5.36D-01  3.00D+00  6.32D-01
                    CP:  3.00D+00 -3.22D-01  1.33D+00  2.51D+00  3.00D+00
                    CP:  3.00D+00  2.75D+00  3.00D+00  3.00D+00  2.11D+00
                    CP:  1.30D+00  1.23D+00
 E= -4547.01357500849     Delta-E=       -0.000000000296 Rises=F Damp=F
 DIIS: error= 4.63D-08 at cycle  38 NSaved=  20.
 NSaved=20 IEnMin=18 EnMin= -4547.01357500857     IErMin=20 ErrMin= 4.63D-08
 ErrMax= 4.63D-08  0.00D+00 EMaxC= 1.00D-01 BMatC= 1.59D-11 BMatP= 9.74D-11
 IDIUse=1 WtCom= 1.00D+00 WtEn= 0.00D+00
 Coeff-Com:  0.341D-03-0.158D-03-0.883D-03 0.149D-02 0.469D-03-0.506D-03
 Coeff-Com: -0.592D-03 0.767D-03-0.738D-03 0.260D-02 0.242D-02-0.110D-01
 Coeff-Com: -0.657D-02-0.241D-02 0.467D-01 0.167D-01-0.891D-01-0.138D+00
 Coeff-Com:  0.202D+00 0.977D+00
 Coeff:      0.341D-03-0.158D-03-0.883D-03 0.149D-02 0.469D-03-0.506D-03
 Coeff:     -0.592D-03 0.767D-03-0.738D-03 0.260D-02 0.242D-02-0.110D-01
 Coeff:     -0.657D-02-0.241D-02 0.467D-01 0.167D-01-0.891D-01-0.138D+00
 Coeff:      0.202D+00 0.977D+00
 Gap=     0.390 Goal=   None    Shift=    0.000
 Gap=     0.128 Goal=   None    Shift=    0.000
 RMSDP=2.42D-08 MaxDP=4.87D-06 DE=-2.96D-10 OVMax= 2.76D-05

 Cycle  39  Pass 1  IDiag  1:
 RMSU=  4.23D-10    CP:  1.00D+00  3.00D+00  5.36D-01  3.00D+00  6.33D-01
                    CP:  3.00D+00 -3.21D-01  1.33D+00  2.51D+00  3.00D+00
                    CP:  3.00D+00  2.76D+00  3.00D+00  3.00D+00  2.12D+00
                    CP:  1.32D+00  1.38D+00  1.62D+00
 E= -4547.01357500880     Delta-E=       -0.000000000315 Rises=F Damp=F
 DIIS: error= 7.94D-09 at cycle  39 NSaved=  20.
 NSaved=20 IEnMin=20 EnMin= -4547.01357500880     IErMin=20 ErrMin= 7.94D-09
 ErrMax= 7.94D-09  0.00D+00 EMaxC= 1.00D-01 BMatC= 1.14D-13 BMatP= 1.59D-11
 IDIUse=1 WtCom= 1.00D+00 WtEn= 0.00D+00
 Coeff-Com:  0.124D-03-0.104D-03 0.268D-03 0.122D-03-0.442D-03 0.441D-03
 Coeff-Com: -0.420D-03 0.245D-03-0.157D-04 0.112D-02 0.138D-02-0.421D-02
 Coeff-Com: -0.115D-01 0.438D-02 0.299D-01 0.620D-02-0.113D+00-0.182D+00
 Coeff-Com:  0.282D+00 0.985D+00
 Coeff:      0.124D-03-0.104D-03 0.268D-03 0.122D-03-0.442D-03 0.441D-03
 Coeff:     -0.420D-03 0.245D-03-0.157D-04 0.112D-02 0.138D-02-0.421D-02
 Coeff:     -0.115D-01 0.438D-02 0.299D-01 0.620D-02-0.113D+00-0.182D+00
 Coeff:      0.282D+00 0.985D+00
 Gap=     0.390 Goal=   None    Shift=    0.000
 Gap=     0.128 Goal=   None    Shift=    0.000
 RMSDP=9.14D-10 MaxDP=1.55D-07 DE=-3.15D-10 OVMax= 7.26D-07

 Error on total polarization charges =  0.00346
 SCF Done:  E(UCAM-B3LYP) =  -4547.01357501     A.U. after   39 cycles
            NFock= 39  Conv=0.91D-09     -V/T= 2.0075
 <Sx>= 0.0000 <Sy>= 0.0000 <Sz>= 0.5000 <S**2>= 0.7693 S= 0.5096
 <L.S>= 0.000000000000E+00
 KE= 4.512985773032D+03 PE=-3.386597104128D+04 EE= 1.321562025882D+04
 Annihilation of the first spin contaminant:
 S**2 before annihilation     0.7693,   after     0.7502
 Leave Link  502 at Thu Jan 30 13:20:22 2025, MaxMem=  5368709120 cpu:     10880.2
 (Enter /home/k0335/k033513/app/g09/l601.exe)
 Copying SCF densities to generalized density rwf, IOpCl= 1 IROHF=0.

 **********************************************************************

            Population analysis using the SCF density.

 **********************************************************************

 Alpha  occ. eigenvalues --  -24.85010 -24.84756 -24.84600 -24.84531 -24.84353
 Alpha  occ. eigenvalues --  -24.84282 -24.84230 -24.84194 -24.84119 -24.84109
 Alpha  occ. eigenvalues --  -24.83952 -24.83935 -24.83893 -24.83849 -24.83808
 Alpha  occ. eigenvalues --  -24.83657 -24.83636 -24.83631 -24.83573 -24.83500
 Alpha  occ. eigenvalues --  -24.83498 -24.83441 -24.83282 -24.83087 -24.82318
 Alpha  occ. eigenvalues --  -24.82069 -24.82043 -24.81958 -19.33980 -19.33785
 Alpha  occ. eigenvalues --  -19.33693 -19.33270 -19.26781 -19.25409 -14.57029
 Alpha  occ. eigenvalues --  -14.56828 -14.52712 -14.52099 -10.60692 -10.60435
 Alpha  occ. eigenvalues --  -10.60254 -10.59930 -10.54547 -10.54334 -10.54296
 Alpha  occ. eigenvalues --  -10.53795 -10.49284 -10.48942 -10.48384 -10.47905
 Alpha  occ. eigenvalues --  -10.47847 -10.45939 -10.43459 -10.43293 -10.36792
 Alpha  occ. eigenvalues --  -10.36752 -10.35347 -10.35313 -10.32491 -10.32285
 Alpha  occ. eigenvalues --  -10.32101 -10.31999 -10.31332 -10.30998 -10.30772
 Alpha  occ. eigenvalues --  -10.30631  -1.44345  -1.44041  -1.43825  -1.43576
 Alpha  occ. eigenvalues --   -1.40324  -1.40163  -1.40089  -1.39998  -1.38795
 Alpha  occ. eigenvalues --   -1.38392  -1.37453  -1.37157  -1.34912  -1.34637
 Alpha  occ. eigenvalues --   -1.34426  -1.34139  -1.34042  -1.33857  -1.33608
 Alpha  occ. eigenvalues --   -1.33311  -1.33155  -1.32840  -1.32837  -1.32824
 Alpha  occ. eigenvalues --   -1.32346  -1.32051  -1.31115  -1.30990  -1.24173
 Alpha  occ. eigenvalues --   -1.22168  -1.21938  -1.21854  -1.21525  -1.20657
 Alpha  occ. eigenvalues --   -1.15682  -1.12680  -1.10919  -1.07110  -0.96669
 Alpha  occ. eigenvalues --   -0.94886  -0.94730  -0.93766  -0.92406  -0.90827
 Alpha  occ. eigenvalues --   -0.90099  -0.89279  -0.88924  -0.87096  -0.86347
 Alpha  occ. eigenvalues --   -0.85966  -0.84595  -0.83236  -0.82472  -0.81401
 Alpha  occ. eigenvalues --   -0.80293  -0.79117  -0.77822  -0.77135  -0.76983
 Alpha  occ. eigenvalues --   -0.76012  -0.75070  -0.74612  -0.74267  -0.73225
 Alpha  occ. eigenvalues --   -0.73211  -0.72917  -0.72580  -0.72268  -0.71862
 Alpha  occ. eigenvalues --   -0.71846  -0.71694  -0.71567  -0.71397  -0.71365
 Alpha  occ. eigenvalues --   -0.71299  -0.71186  -0.70778  -0.70717  -0.69641
 Alpha  occ. eigenvalues --   -0.69398  -0.69056  -0.68470  -0.68452  -0.68178
 Alpha  occ. eigenvalues --   -0.68092  -0.67731  -0.67528  -0.67362  -0.66199
 Alpha  occ. eigenvalues --   -0.65810  -0.65604  -0.64897  -0.64707  -0.64154
 Alpha  occ. eigenvalues --   -0.63772  -0.63398  -0.62443  -0.62119  -0.61827
 Alpha  occ. eigenvalues --   -0.61692  -0.61546  -0.61413  -0.61255  -0.60303
 Alpha  occ. eigenvalues --   -0.59694  -0.59135  -0.58970  -0.58744  -0.58346
 Alpha  occ. eigenvalues --   -0.58179  -0.58075  -0.57928  -0.57714  -0.57346
 Alpha  occ. eigenvalues --   -0.57285  -0.57136  -0.57022  -0.56865  -0.56681
 Alpha  occ. eigenvalues --   -0.56466  -0.56257  -0.55977  -0.55908  -0.55673
 Alpha  occ. eigenvalues --   -0.55575  -0.55343  -0.55188  -0.55063  -0.54957
 Alpha  occ. eigenvalues --   -0.54871  -0.54711  -0.54631  -0.54499  -0.54185
 Alpha  occ. eigenvalues --   -0.54156  -0.53960  -0.53824  -0.53653  -0.53260
 Alpha  occ. eigenvalues --   -0.53190  -0.53087  -0.52850  -0.52734  -0.52676
 Alpha  occ. eigenvalues --   -0.52572  -0.52558  -0.52303  -0.52191  -0.51939
 Alpha  occ. eigenvalues --   -0.51842  -0.51761  -0.51536  -0.51501  -0.51492
 Alpha  occ. eigenvalues --   -0.51278  -0.51187  -0.51057  -0.50800  -0.50680
 Alpha  occ. eigenvalues --   -0.50588  -0.50573  -0.50492  -0.50417  -0.50327
 Alpha  occ. eigenvalues --   -0.50239  -0.50107  -0.50057  -0.49792  -0.49668
 Alpha  occ. eigenvalues --   -0.49515  -0.49326  -0.49004  -0.48879  -0.48662
 Alpha  occ. eigenvalues --   -0.48256  -0.47213  -0.46958  -0.46865  -0.46705
 Alpha  occ. eigenvalues --   -0.46530  -0.46013  -0.45934  -0.45831  -0.44480
 Alpha  occ. eigenvalues --   -0.44373  -0.43835  -0.43626  -0.43451  -0.43390
 Alpha  occ. eigenvalues --   -0.42070  -0.41530  -0.41202  -0.39440  -0.38952
 Alpha  occ. eigenvalues --   -0.37369
 Alpha virt. eigenvalues --    0.01607   0.03457   0.06344   0.07411   0.08021
 Alpha virt. eigenvalues --    0.08490   0.08766   0.08945   0.09278   0.09817
 Alpha virt. eigenvalues --    0.10251   0.10494   0.10649   0.11185   0.11706
 Alpha virt. eigenvalues --    0.11941   0.12549   0.12670   0.12891   0.13428
 Alpha virt. eigenvalues --    0.13801   0.13922   0.14732   0.14785   0.15614
 Alpha virt. eigenvalues --    0.15819   0.15970   0.16610   0.16826   0.17108
 Alpha virt. eigenvalues --    0.17471   0.17586   0.17818   0.18025   0.18296
 Alpha virt. eigenvalues --    0.18410   0.18764   0.19051   0.19355   0.19804
 Alpha virt. eigenvalues --    0.19999   0.20045   0.20185   0.20245   0.20631
 Alpha virt. eigenvalues --    0.20783   0.20821   0.21251   0.21515   0.21620
 Alpha virt. eigenvalues --    0.21680   0.21996   0.22146   0.22279   0.22361
 Alpha virt. eigenvalues --    0.22670   0.22716   0.23072   0.23342   0.23715
 Alpha virt. eigenvalues --    0.23883   0.24017   0.24126   0.24438   0.24603
 Alpha virt. eigenvalues --    0.24925   0.25152   0.25304   0.25676   0.25934
 Alpha virt. eigenvalues --    0.26370   0.26588   0.27739   0.28174   0.28426
 Alpha virt. eigenvalues --    0.28594   0.28744   0.28887   0.29139   0.29548
 Alpha virt. eigenvalues --    0.29861   0.30207   0.30727   0.30949   0.31808
 Alpha virt. eigenvalues --    0.32149   0.33024   0.33157   0.33291   0.33705
 Alpha virt. eigenvalues --    0.35384   0.35953   0.38020   0.38334   0.43286
 Alpha virt. eigenvalues --    0.45693   0.46160   0.46781   0.47894   0.48230
[...]
              Bcc     0.0008     0.382     0.136     0.127  0.2753  0.8688  0.4117
 
              Baa    -0.0004     0.026     0.009     0.009  0.7967 -0.6017  0.0559
    30 O(17)  Bbb    -0.0003     0.025     0.009     0.008 -0.2818 -0.2882  0.9151
              Bcc     0.0007    -0.051    -0.018    -0.017  0.5346  0.7449  0.3992
 
              Baa    -0.0003    -0.036    -0.013    -0.012 -0.6423  0.7512 -0.1524
    31 C(13)  Bbb    -0.0003    -0.036    -0.013    -0.012 -0.2949 -0.0587  0.9537
              Bcc     0.0005     0.072     0.026     0.024  0.7075  0.6575  0.2592
 
              Baa    -0.0002    -0.087    -0.031    -0.029 -0.5340  0.7189 -0.4450
    32 F(19)  Bbb    -0.0002    -0.085    -0.030    -0.028 -0.4517  0.2023  0.8689
              Bcc     0.0003     0.171     0.061     0.057  0.7147  0.6650  0.2167
 
              Baa    -0.0003    -0.137    -0.049    -0.046 -0.1940  0.7320 -0.6531
    33 F(19)  Bbb    -0.0003    -0.134    -0.048    -0.045 -0.6391  0.4107  0.6502
              Bcc     0.0005     0.271     0.097     0.090  0.7442  0.5436  0.3881
 
              Baa    -0.0004    -0.182    -0.065    -0.061 -0.6050  0.7717 -0.1964
    34 F(19)  Bbb    -0.0004    -0.176    -0.063    -0.059 -0.2218  0.0735  0.9723
              Bcc     0.0007     0.358     0.128     0.119  0.7647  0.6318  0.1267
 
              Baa    -0.1755    -6.769    -2.415    -2.258  0.2853 -0.0357  0.9578
    35 N(14)  Bbb    -0.1694    -6.534    -2.331    -2.179  0.0519  0.9984  0.0217
              Bcc     0.3449    13.303     4.747     4.437  0.9570 -0.0435 -0.2867
 
              Baa    -0.0070    -0.941    -0.336    -0.314  0.3237  0.3799  0.8666
    36 C(13)  Bbb    -0.0014    -0.181    -0.065    -0.060  0.5002  0.7087 -0.4975
              Bcc     0.0084     1.122     0.401     0.374  0.8032 -0.5945 -0.0394
 
              Baa    -0.0085    -1.147    -0.409    -0.383  0.1806  0.6768  0.7137
    37 C(13)  Bbb    -0.0044    -0.594    -0.212    -0.198  0.7867 -0.5350  0.3082
              Bcc     0.0130     1.741     0.621     0.581 -0.5904 -0.5058  0.6290
 
              Baa    -0.0013    -0.177    -0.063    -0.059 -0.3892  0.3934  0.8329
    38 C(13)  Bbb    -0.0010    -0.138    -0.049    -0.046  0.9080  0.3160  0.2751
              Bcc     0.0023     0.315     0.112     0.105 -0.1550  0.8634 -0.4802
 
              Baa    -0.0008    -0.111    -0.039    -0.037  0.4346  0.5990  0.6726
    39 C(13)  Bbb    -0.0006    -0.086    -0.031    -0.029  0.8965 -0.3588 -0.2598
              Bcc     0.0015     0.196     0.070     0.066  0.0857  0.7159 -0.6929
 
              Baa    -0.0006    -0.315    -0.112    -0.105 -0.0504  0.7810  0.6225
    40 F(19)  Bbb    -0.0005    -0.229    -0.082    -0.076  0.9957  0.0875 -0.0291
              Bcc     0.0011     0.543     0.194     0.181  0.0772 -0.6184  0.7821
 
              Baa    -0.0008    -0.400    -0.143    -0.133  0.9650 -0.2500 -0.0787
    41 F(19)  Bbb    -0.0006    -0.326    -0.116    -0.109  0.2042  0.5289  0.8238
              Bcc     0.0014     0.726     0.259     0.242  0.1643  0.8110 -0.5614
 
              Baa    -0.0004    -0.050    -0.018    -0.017  0.7274 -0.2936 -0.6202
    42 C(13)  Bbb    -0.0004    -0.049    -0.018    -0.016  0.6781  0.4459  0.5843
              Bcc     0.0007     0.099     0.035     0.033 -0.1050  0.8455 -0.5235
 
              Baa    -0.0003    -0.146    -0.052    -0.049  0.8608 -0.0792 -0.5028
    43 F(19)  Bbb    -0.0003    -0.133    -0.048    -0.044  0.4503  0.5789  0.6798
              Bcc     0.0006     0.279     0.100     0.093 -0.2372  0.8115 -0.5340
 
              Baa    -0.0003    -0.163    -0.058    -0.054 -0.2817  0.3663  0.8868
    44 F(19)  Bbb    -0.0003    -0.148    -0.053    -0.049  0.9562  0.1841  0.2277
              Bcc     0.0006     0.311     0.111     0.104 -0.0799  0.9121 -0.4021
 
              Baa    -0.0003     0.020     0.007     0.007  0.7659 -0.4189 -0.4879
    45 O(17)  Bbb    -0.0003     0.019     0.007     0.006  0.6429  0.4849  0.5929
              Bcc     0.0005    -0.039    -0.014    -0.013  0.0117  0.7677 -0.6407
 
              Baa    -0.0002    -0.022    -0.008    -0.007  0.8367 -0.3007 -0.4577
    46 C(13)  Bbb    -0.0002    -0.021    -0.008    -0.007  0.5476  0.4538  0.7030
              Bcc     0.0003     0.044     0.016     0.015  0.0037  0.8388 -0.5444
 
              Baa    -0.0001    -0.073    -0.026    -0.024  0.8149 -0.2066 -0.5415
    47 F(19)  Bbb    -0.0001    -0.070    -0.025    -0.023  0.5665  0.4816  0.6687
              Bcc     0.0003     0.144     0.051     0.048 -0.1226  0.8517 -0.5095
 
              Baa    -0.0001    -0.065    -0.023    -0.022  0.7455 -0.4334 -0.5064
    48 F(19)  Bbb    -0.0001    -0.063    -0.022    -0.021  0.6643  0.4221  0.6168
              Bcc     0.0003     0.128     0.046     0.043  0.0536  0.7962 -0.6026
 
              Baa    -0.0002    -0.080    -0.029    -0.027  0.7007 -0.3766 -0.6060
    49 F(19)  Bbb    -0.0002    -0.077    -0.028    -0.026  0.7088  0.2708  0.6513
              Bcc     0.0003     0.158     0.056     0.053  0.0812  0.8859 -0.4567
 
              Baa    -0.0268    -3.592    -1.282    -1.198 -0.5434  0.0405  0.8385
    50 C(13)  Bbb     0.0081     1.083     0.387     0.361  0.8385  0.0740  0.5398
              Bcc     0.0187     2.508     0.895     0.837 -0.0402  0.9964 -0.0742
 
              Baa    -0.1160     8.392     2.995     2.799 -0.6294  0.1293  0.7663
    51 O(17)  Bbb    -0.0110     0.795     0.284     0.265  0.7533 -0.1408  0.6425
              Bcc     0.1270    -9.187    -3.278    -3.065  0.1910  0.9815 -0.0088
 
              Baa    -0.1977    -7.624    -2.720    -2.543  0.3059 -0.5381  0.7854
    52 N(14)  Bbb    -0.1926    -7.428    -2.651    -2.478  0.4131  0.8183  0.3997
              Bcc     0.3903    15.052     5.371     5.021  0.8578 -0.2022 -0.4726
 
              Baa    -0.0080    -1.076    -0.384    -0.359 -0.5587  0.5971 -0.5756
    53 C(13)  Bbb    -0.0015    -0.202    -0.072    -0.067  0.0279  0.7072  0.7065
              Bcc     0.0095     1.277     0.456     0.426  0.8289  0.3787 -0.4118
 
              Baa    -0.0113    -1.520    -0.543    -0.507  0.5712 -0.5476  0.6114
    54 C(13)  Bbb    -0.0111    -1.485    -0.530    -0.495  0.0824  0.7794  0.6210
              Bcc     0.0224     3.005     1.072     1.002  0.8167  0.3043 -0.4904
 
              Baa    -0.0027    -0.366    -0.131    -0.122  0.0640 -0.1005  0.9929
    55 C(13)  Bbb    -0.0026    -0.343    -0.122    -0.114  0.7659 -0.6329 -0.1134
              Bcc     0.0053     0.709     0.253     0.236  0.6398  0.7677  0.0365
 
              Baa    -0.0011    -0.150    -0.053    -0.050  0.5098 -0.5306  0.6771
    56 C(13)  Bbb    -0.0008    -0.104    -0.037    -0.035  0.0650  0.8086  0.5847
              Bcc     0.0019     0.253     0.090     0.084  0.8578  0.2541 -0.4467
 
              Baa    -0.0006    -0.305    -0.109    -0.102 -0.4242  0.8740 -0.2371
    57 F(19)  Bbb    -0.0001    -0.068    -0.024    -0.023 -0.0355  0.2456  0.9687
              Bcc     0.0007     0.373     0.133     0.124  0.9049  0.4193 -0.0732
 
              Baa    -0.0019    -0.969    -0.346    -0.323  0.1450  0.2908  0.9458
    58 F(19)  Bbb    -0.0017    -0.879    -0.314    -0.293 -0.4254  0.8813 -0.2057
              Bcc     0.0037     1.848     0.659     0.616  0.8933  0.3725 -0.2514
 
              Baa    -0.0004    -0.060    -0.021    -0.020 -0.4501  0.8407  0.3012
    59 C(13)  Bbb    -0.0004    -0.054    -0.019    -0.018  0.5284 -0.0212  0.8487
              Bcc     0.0008     0.114     0.041     0.038  0.7199  0.5411 -0.4347
 
              Baa    -0.0008    -0.413    -0.147    -0.138 -0.4743  0.8722  0.1198
    60 F(19)  Bbb    -0.0006    -0.307    -0.110    -0.103  0.6403  0.2484  0.7269
              Bcc     0.0014     0.720     0.257     0.240 -0.6042 -0.4214  0.6762
 
              Baa    -0.0004    -0.195    -0.070    -0.065 -0.4542  0.7223  0.5215
    61 F(19)  Bbb    -0.0004    -0.186    -0.066    -0.062  0.6695 -0.1095  0.7347
              Bcc     0.0008     0.381     0.136     0.127  0.5878  0.6829 -0.4339
 
              Baa    -0.0003     0.021     0.008     0.007 -0.5387  0.8424 -0.0129
    62 O(17)  Bbb    -0.0003     0.019     0.007     0.006  0.4192  0.2812  0.8632
              Bcc     0.0006    -0.040    -0.014    -0.014  0.7308  0.4596 -0.5046
 
              Baa    -0.0002    -0.025    -0.009    -0.008 -0.6145  0.7632 -0.1997
    63 C(13)  Bbb    -0.0002    -0.024    -0.009    -0.008  0.1660  0.3726  0.9130
              Bcc     0.0004     0.049     0.018     0.016  0.7712  0.5279 -0.3557
 
              Baa    -0.0002    -0.096    -0.034    -0.032 -0.5677  0.7574  0.3227
    64 F(19)  Bbb    -0.0002    -0.086    -0.031    -0.029  0.4478 -0.0448  0.8930
              Bcc     0.0004     0.182     0.065     0.061  0.6908  0.6514 -0.3137
 
              Baa    -0.0001    -0.065    -0.023    -0.022 -0.6041  0.7810 -0.1584
    65 F(19)  Bbb    -0.0001    -0.064    -0.023    -0.021  0.2293  0.3606  0.9041
              Bcc     0.0003     0.129     0.046     0.043  0.7632  0.5098 -0.3969
 
              Baa    -0.0002    -0.096    -0.034    -0.032  0.4730 -0.4823  0.7373
    66 F(19)  Bbb    -0.0002    -0.081    -0.029    -0.027 -0.2022  0.7551  0.6236
              Bcc     0.0004     0.177     0.063     0.059  0.8575  0.4440 -0.2597
 
              Baa    -0.0066    -3.548    -1.266    -1.183 -0.1532 -0.1104  0.9820
    67 H(1)   Bbb    -0.0037    -1.983    -0.708    -0.661  0.5874  0.7889  0.1804
              Bcc     0.0104     5.531     1.974     1.845  0.7946 -0.6045  0.0560
 
              Baa    -0.0061    -3.248    -1.159    -1.084 -0.1284  0.1250  0.9838
    68 H(1)   Bbb    -0.0033    -1.742    -0.621    -0.581  0.9855 -0.0953  0.1407
              Bcc     0.0094     4.990     1.781     1.664  0.1113  0.9876 -0.1110
 
              Baa    -0.0061    -3.267    -1.166    -1.090  0.3775  0.7524 -0.5398
    69 H(1)   Bbb     0.0000    -0.023    -0.008    -0.008  0.9199 -0.3718  0.1251
              Bcc     0.0062     3.290     1.174     1.097  0.1066  0.5438  0.8324
 
              Baa    -0.0054    -2.881    -1.028    -0.961  0.8253 -0.0805  0.5589
    70 H(1)   Bbb    -0.0020    -1.073    -0.383    -0.358  0.1117  0.9935 -0.0218
              Bcc     0.0074     3.953     1.411     1.319 -0.5535  0.0804  0.8290
 
              Baa    -0.0016    -0.842    -0.301    -0.281  0.9166  0.3986  0.0315
    71 H(1)   Bbb    -0.0005    -0.267    -0.095    -0.089 -0.2849  0.7064 -0.6480
              Bcc     0.0021     1.110     0.396     0.370 -0.2806  0.5849  0.7610
 
              Baa    -0.0018    -0.956    -0.341    -0.319  0.5532  0.6824 -0.4778
    72 H(1)   Bbb    -0.0011    -0.570    -0.203    -0.190  0.5897  0.0844  0.8032
              Bcc     0.0029     1.526     0.544     0.509 -0.5884  0.7261  0.3557
 
              Baa    -0.0066    -3.537    -1.262    -1.180 -0.0561  0.9706  0.2340
    73 H(1)   Bbb    -0.0014    -0.734    -0.262    -0.245  0.7664 -0.1084  0.6332
              Bcc     0.0080     4.271     1.524     1.425 -0.6399 -0.2149  0.7378
 
              Baa    -0.0056    -3.004    -1.072    -1.002 -0.0721  0.9192 -0.3871
    74 H(1)   Bbb    -0.0017    -0.896    -0.320    -0.299  0.6541  0.3366  0.6774
              Bcc     0.0073     3.900     1.392     1.301  0.7530 -0.2043 -0.6255
 
              Baa    -0.0059    -3.167    -1.130    -1.056  0.2242 -0.2533  0.9411
    75 H(1)   Bbb    -0.0048    -2.559    -0.913    -0.853 -0.5453  0.7677  0.3365
              Bcc     0.0107     5.725     2.043     1.910  0.8077  0.5886 -0.0340
 
              Baa    -0.0060    -3.194    -1.140    -1.065 -0.1275 -0.2295  0.9649
    76 H(1)   Bbb    -0.0038    -2.045    -0.730    -0.682  0.9882  0.0540  0.1434
              Bcc     0.0098     5.239     1.869     1.747 -0.0851  0.9718  0.2199
 
              Baa    -0.0058    -3.085    -1.101    -1.029  0.6989 -0.6933  0.1758
    77 H(1)   Bbb    -0.0010    -0.560    -0.200    -0.187  0.7059  0.7082 -0.0131
              Bcc     0.0068     3.645     1.301     1.216 -0.1155  0.1332  0.9843
 
              Baa    -0.0050    -2.659    -0.949    -0.887 -0.6196 -0.4204  0.6628
    78 H(1)   Bbb    -0.0012    -0.665    -0.237    -0.222 -0.2322  0.9048  0.3569
              Bcc     0.0062     3.324     1.186     1.109  0.7498 -0.0672  0.6583
 
              Baa    -0.0019    -1.000    -0.357    -0.334 -0.5917 -0.4658  0.6580
    79 H(1)   Bbb    -0.0009    -0.475    -0.170    -0.159  0.8056 -0.3123  0.5034
              Bcc     0.0028     1.475     0.526     0.492 -0.0290  0.8279  0.5601
 
              Baa    -0.0017    -0.903    -0.322    -0.301  0.9515 -0.1714 -0.2553
    80 H(1)   Bbb    -0.0003    -0.170    -0.061    -0.057  0.0564  0.9134 -0.4031
              Bcc     0.0020     1.074     0.383     0.358  0.3023  0.3691  0.8788
 
              Baa    -0.0033    -1.759    -0.628    -0.587 -0.4165 -0.0719  0.9063
    81 H(1)   Bbb    -0.0015    -0.799    -0.285    -0.267  0.5461  0.7772  0.3126
              Bcc     0.0048     2.558     0.913     0.853  0.7268 -0.6252  0.2845
 
              Baa    -0.0038    -2.050    -0.731    -0.684 -0.3692 -0.2973  0.8805
    82 H(1)   Bbb    -0.0013    -0.710    -0.254    -0.237  0.8312  0.3182  0.4560
              Bcc     0.0052     2.760     0.985     0.921 -0.4157  0.9002  0.1296
 
              Baa    -0.0023    -1.202    -0.429    -0.401  0.9744  0.2175 -0.0567
    83 H(1)   Bbb    -0.0015    -0.805    -0.287    -0.269 -0.1729  0.8867  0.4288
              Bcc     0.0038     2.007     0.716     0.670  0.1435 -0.4080  0.9016
 
              Baa    -0.0041    -2.189    -0.781    -0.730 -0.2835  0.6251  0.7272
    84 H(1)   Bbb    -0.0017    -0.914    -0.326    -0.305  0.9564  0.2396  0.1669
              Bcc     0.0058     3.103     1.107     1.035 -0.0699  0.7428 -0.6658
 
              Baa    -0.0010    -0.548    -0.195    -0.183 -0.5083  0.1611  0.8460
    85 H(1)   Bbb    -0.0008    -0.439    -0.157    -0.147  0.8422  0.2982  0.4492
              Bcc     0.0019     0.987     0.352     0.329 -0.1799  0.9408 -0.2873
 
              Baa    -0.0009    -0.496    -0.177    -0.165 -0.0316  0.5267  0.8495
    86 H(1)   Bbb    -0.0008    -0.411    -0.147    -0.137  0.9345  0.3171 -0.1619
              Bcc     0.0017     0.907     0.324     0.302 -0.3546  0.7887 -0.5022
 
              Baa    -0.0033    -1.740    -0.621    -0.580 -0.4739 -0.2610  0.8410
    87 H(1)   Bbb    -0.0025    -1.358    -0.485    -0.453 -0.5789  0.8120 -0.0742
              Bcc     0.0058     3.098     1.105     1.033  0.6635  0.5221  0.5360
 
              Baa    -0.0042    -2.219    -0.792    -0.740 -0.3148  0.0395  0.9483
    88 H(1)   Bbb    -0.0016    -0.833    -0.297    -0.278  0.8736 -0.3786  0.3058
              Bcc     0.0057     3.052     1.089     1.018  0.3712  0.9247  0.0847
 
              Baa    -0.0028    -1.516    -0.541    -0.506 -0.5116  0.8440  0.1613
    89 H(1)   Bbb    -0.0007    -0.397    -0.142    -0.132  0.6360  0.2458  0.7315
              Bcc     0.0036     1.913     0.683     0.638 -0.5777 -0.4768  0.6625
 
              Baa    -0.0028    -1.506    -0.537    -0.502  0.2129  0.0646  0.9749
    90 H(1)   Bbb    -0.0010    -0.509    -0.182    -0.170 -0.1101  0.9930 -0.0418
              Bcc     0.0038     2.016     0.719     0.672  0.9709  0.0985 -0.2185
 
              Baa    -0.0010    -0.533    -0.190    -0.178 -0.6273  0.7787  0.0110
    91 H(1)   Bbb    -0.0007    -0.385    -0.137    -0.128 -0.1893 -0.1662  0.9677
              Bcc     0.0017     0.919     0.328     0.306  0.7554  0.6050  0.2517
 
              Baa    -0.0011    -0.591    -0.211    -0.197  0.0849  0.0292  0.9960
    92 H(1)   Bbb    -0.0006    -0.304    -0.108    -0.101  0.8293 -0.5562 -0.0544
              Bcc     0.0017     0.895     0.320     0.299  0.5524  0.8305 -0.0715
 

 ---------------------------------------------------------------------------------

 No NMR shielding tensors so no spin-rotation constants.
 Leave Link  601 at Thu Jan 30 13:20:22 2025, MaxMem=  5368709120 cpu:         8.6
 (Enter /home/k0335/k033513/app/g09/l9999.exe)
 1\1\GINC-C15U01N1\SP\UCAM-B3LYP\6-31G(d,p)\C28H26F28N4O6(1+,2)\K033513
 \30-Jan-2025\0\\#p CAM-B3LYP/6-31G(d,p) SCRF=(PCM,Solvent=Generic,Read
 ) NoSymm out=wfn\\Title finalTAG_p1\\1,2\O,0,-3.152312,0.204,-0.2348\C
 ,0,-1.939128,0.167083,-0.365129\N,0,-1.084621,1.260344,-0.291455\C,0,-
 1.522894,2.604584,0.019926\C,0,-1.583006,2.826913,1.533269\C,0,-2.0819
 66,4.212042,1.959108\C,0,-1.17176,5.358378,1.522431\F,0,0.117317,5.060
 344,1.847924\F,0,-1.20513,5.444684,0.163924\C,0,-1.576217,6.710402,2.1
 66526\F,0,-2.840864,7.060803,1.808122\F,0,-1.627754,6.545776,3.523258\
 O,0,-0.744831,7.828332,1.97046\C,0,-0.520885,8.061825,0.612255\F,0,-1.
 63341,7.887885,-0.120486\F,0,0.453915,7.248052,0.165812\F,0,-0.106642,
 9.334596,0.460167\C,0,0.261173,0.911035,-0.682328\C,0,0.206286,-0.6353
 77,-0.823028\N,0,-1.186319,-0.966596,-0.662848\C,0,-1.777834,-2.200638
 ,-1.14503\C,0,-2.12567,-2.117171,-2.633915\C,0,-2.433401,-3.472253,-3.
 283718\C,0,-3.633572,-4.204603,-2.683201\F,0,-3.360602,-4.511538,-1.38
 5894\F,0,-4.692849,-3.356315,-2.667671\C,0,-3.972311,-5.501487,-3.4651
 61\F,0,-4.273055,-5.223648,-4.762247\F,0,-2.837509,-6.264376,-3.52779\
 O,0,-4.96037,-6.36699,-2.96487\C,0,-6.161911,-5.685859,-2.746049\F,0,-
 7.160546,-6.589889,-2.688774\F,0,-6.432801,-4.81603,-3.734336\F,0,-6.1
 08048,-5.043905,-1.566356\N,0,1.064969,-1.101836,0.240215\C,0,1.32007,
 -2.492818,0.547528\C,0,0.498795,-2.955518,1.752039\C,0,0.826673,-4.400
 369,2.132525\C,0,-0.015926,-4.874013,3.313255\F,0,0.172316,-4.027325,4
 .363341\F,0,-1.333213,-4.779876,2.974391\C,0,0.318372,-6.318631,3.7269
 54\F,0,1.630511,-6.408729,4.065902\F,0,0.122153,-7.155968,2.675707\O,0
 ,-0.448054,-6.740832,4.828263\C,0,-0.378422,-8.131445,4.939052\F,0,0.8
 77576,-8.59077,4.796425\F,0,-0.816257,-8.48081,6.166668\F,0,-1.183186,
 -8.712021,4.026971\C,0,1.74228,-0.050828,0.845831\O,0,2.641659,-0.1607
 64,1.662553\N,0,1.263921,1.146821,0.324609\C,0,1.959426,2.406384,0.501
 439\C,0,3.093509,2.582005,-0.5115\C,0,3.891401,3.854149,-0.226799\C,0,
 5.149279,4.02823,-1.079896\F,0,5.961759,2.950708,-0.898068\F,0,5.82582
 5,5.093394,-0.56087\C,0,4.890851,4.250716,-2.593198\F,0,4.175269,3.192
 375,-3.0776\F,0,4.088168,5.330238,-2.79427\O,0,5.989083,4.357453,-3.46
 5737\C,0,6.878361,5.352941,-3.055041\F,0,6.236757,6.444834,-2.605781\F
 ,0,7.634767,5.711058,-4.112622\F,0,7.693939,4.867287,-2.102665\H,0,-2.
 52521,2.745875,-0.40285\H,0,-0.851429,3.30412,-0.483051\H,0,-0.597152,
 2.643811,1.979273\H,0,-2.248588,2.074436,1.975445\H,0,-2.158862,4.2053
 91,3.052945\H,0,-3.09034,4.371657,1.560064\H,0,0.516456,1.398173,-1.62
 9545\H,0,0.592265,-0.969872,-1.792076\H,0,-2.688422,-2.383357,-0.56375
 \H,0,-1.081189,-3.020714,-0.9534\H,0,-1.286093,-1.668709,-3.179714\H,0
 ,-2.973626,-1.434558,-2.775823\H,0,-1.541866,-4.106324,-3.211814\H,0,-
 2.622078,-3.290629,-4.348188\H,0,2.388079,-2.597115,0.777898\H,0,1.113
 594,-3.10074,-0.340154\H,0,0.696219,-2.297797,2.608276\H,0,-0.570447,-
 2.863427,1.529512\H,0,0.64485,-5.048481,1.267694\H,0,1.89149,-4.471648
 ,2.385526\H,0,2.368732,2.422793,1.518707\H,0,1.243459,3.227748,0.41711
 2\H,0,2.66162,2.617532,-1.516466\H,0,3.759425,1.711034,-0.480388\H,0,4
 .207385,3.838872,0.823719\H,0,3.248623,4.735488,-0.336668\\Version=ES6
 4L-G09RevD.01\HF=-4547.013575\S2=0.769308\S2-1=0.\S2A=0.750174\RMSD=9.
 143e-10\Dipole=-0.3828624,0.7000071,-2.1794434\Quadrupole=-11.0381503,
 6.7492798,4.2888704,-14.3000678,2.3478239,15.0215422\PG=C01 [X(C28H26F
 28N4O6)]\\@

 Writing a WFN file to "finalTAG/finalTAG_p1.wfn"


 THE NUMBERS ARE MEANINGLESS, BUT THE TRENDS ARE IMPORTANT.
     -- LARRY BURGGRAF
 Job cpu time:       0 days  3 hours  3 minutes 35.3 seconds.
 File lengths (MBytes):  RWF=   1965 Int=      0 D2E=      0 Chk=     61 Scr=      1
 Normal termination of Gaussian 09 at Thu Jan 30 13:20:24 2025.
