 Entering Gaussian System, Link 0=g09
 Initial command:
 /home/k0335/k033513/app/g09/l1.exe "/home/k0335/k033513/app/g09/scratch/Gau-659075.inp" -scrdir="/home/k0335/k033513/app/g09/scratch/"
 Default is to use a total of  36 processors:
                               36 via shared-memory
                                1 via Linda
 Entering Link 1 = /home/k0335/k033513/app/g09/l1.exe PID=    659076.
  
 Copyright (c) 1988,1990,1992,1993,1995,1998,2003,2009,2013,
            Gaussian, Inc.  All Rights Reserved.
  
 This is part of the Gaussian(R) 09 program.  It is based on
 the Gaussian(R) 03 system (copyright 2003, Gaussian, Inc.),
 the Gaussian(R) 98 system (copyright 1998, Gaussian, Inc.),
 the Gaussian(R) 94 system (copyright 1995, Gaussian, Inc.),
 the Gaussian 92(TM) system (copyright 1992, Gaussian, Inc.),
 the Gaussian 90(TM) system (copyright 1990, Gaussian, Inc.),
 the Gaussian 88(TM) system (copyright 1988, Gaussian, Inc.),
 the Gaussian 86(TM) system (copyright 1986, Carnegie Mellon
 University), and the Gaussian 82(TM) system (copyright 1983,
 Carnegie Mellon University). Gaussian is a federally registered
 trademark of Gaussian, Inc.
  
 This software contains proprietary and confidential information,
 including trade secrets, belonging to Gaussian, Inc.
  
 This software is provided under written license and may be
 used, copied, transmitted, or stored only in accord with that
 written license.
  
 The following legend is applicable only to US Government
 contracts under FAR:
  
                    RESTRICTED RIGHTS LEGEND
  
 Use, reproduction and disclosure by the US Government is
 subject to restrictions as set forth in subparagraphs (a)
 and (c) of the Commercial Computer Software - Restricted
 Rights clause in FAR 52.227-19.
  
 Gaussian, Inc.
 340 Quinnipiac St., Bldg. 40, Wallingford CT 06492
  
  
 ---------------------------------------------------------------
 Warning -- This program may not be used in any manner that
 competes with the business of Gaussian, Inc. or will provide
 assistance to any competitor of Gaussian, Inc.  The licensee
 of this program is prohibited from giving any competitor of
 Gaussian, Inc. access to this program.  By using this program,
 the user acknowledges that Gaussian, Inc. is engaged in the
 business of creating and licensing software in the field of
 computational chemistry and represents and warrants to the
 licensee that it is not a competitor of Gaussian, Inc. and that
 it will not use this program in any manner prohibited above.
 ---------------------------------------------------------------
  

 Cite this work as:
 Gaussian 09, Revision D.01,
 M. J. Frisch, G. W. Trucks, H. B. Schlegel, G. E. Scuseria, 
 M. A. Robb, J. R. Cheeseman, G. Scalmani, V. Barone, B. Mennucci, 
 G. A. Petersson, H. Nakatsuji, M. Caricato, X. Li, H. P. Hratchian, 
 A. F. Izmaylov, J. Bloino, G. Zheng, J. L. Sonnenberg, M. Hada, 
 M. Ehara, K. Toyota, R. Fukuda, J. Hasegawa, M. Ishida, T. Nakajima, 
 Y. Honda, O. Kitao, H. Nakai, T. Vreven, J. A. Montgomery, Jr., 
 J. E. Peralta, F. Ogliaro, M. Bearpark, J. J. Heyd, E. Brothers, 
 K. N. Kudin, V. N. Staroverov, T. Keith, R. Kobayashi, J. Normand, 
 K. Raghavachari, A. Rendell, J. C. Burant, S. S. Iyengar, J. Tomasi, 
 M. Cossi, N. Rega, J. M. Millam, M. Klene, J. E. Knox, J. B. Cross, 
 V. Bakken, C. Adamo, J. Jaramillo, R. Gomperts, R. E. Stratmann, 
 O. Yazyev, A. J. Austin, R. Cammi, C. Pomelli, J. W. Ochterski, 
 R. L. Martin, K. Morokuma, V. G. Zakrzewski, G. A. Voth, 
 P. Salvador, J. J. Dannenberg, S. Dapprich, A. D. Daniels, 
 O. Farkas, J. B. Foresman, J. V. Ortiz, J. Cioslowski, 
 and D. J. Fox, Gaussian, Inc., Wallingford CT, 2013.
 
 ******************************************
 Gaussian 09:  ES64L-G09RevD.01 24-Apr-2013
                 3-Mar-2024 
 ******************************************
 %nprocshared=24
 Will use up to   24 processors via shared memory.
 %mem=40GB
 %rwf=A201888832/A201888832_0.rwf
 %nosave
 %chk=A201888832/A201888832_0.chk
 ----------------------------------------------------------------------
 #p CAM-B3LYP/6-31G(d,p) SCRF=(PCM,Solvent=Generic,Read) NoSymm out=wfn
 ----------------------------------------------------------------------
 1/38=1,40=2/1;
 2/12=2,15=1,17=6,18=5,40=1/2;
 3/5=1,6=6,7=101,11=2,16=1,25=1,30=1,70=2203,72=-2,74=-40/1,2,3;
 4//1;
 5/5=2,38=5/2;
 6/7=2,8=2,9=2,10=2,28=1/1;
 99/5=1,6=100,9=1/99;
 Leave Link    1 at Sun Mar  3 18:13:02 2024, MaxMem=  5368709120 cpu:         1.8
 (Enter /home/k0335/k033513/app/g09/l101.exe)
 ------------------
 Title A201888832_0
 ------------------
 Symbolic Z-matrix:
 Charge =  0 Multiplicity = 1
 C                    -0.6153    3.07677  -3.76735 
 C                    -0.39427   3.02444  -2.5879 
 C                    -0.12499   2.95534  -1.1422 
 N                    -0.07004   1.56462  -0.70438 
 C                    -1.24242   0.94884  -0.33364 
 O                    -2.30056   1.56725  -0.27714 
 N                    -1.1735   -0.38004  -0.0239 
 C                    -2.34979  -1.08875   0.47723 
 F                    -2.14276  -2.42634   0.24418 
 F                    -2.35479  -0.97253   1.83735 
 C                    -3.79748  -0.81422  -0.04567 
 F                    -4.62382  -1.79284   0.46564 
 O                    -4.45969   0.40768   0.27515 
 C                    -4.51694   0.67072   1.65381 
 F                    -4.84188  -0.42722   2.35564 
 F                    -3.33327   1.14335   2.08457 
 F                    -5.45547   1.61236   1.87139 
 C                    -3.76867  -1.03195  -1.55928 
 F                    -3.36397  -2.28052  -1.89011 
 F                    -2.93099  -0.18267  -2.19803 
 F                    -4.99481  -0.8612   -2.11178 
 C                     0.04417  -0.95      0.28813 
 O                     0.15031  -1.9       1.05867 
 N                     1.15266  -0.37134  -0.28472 
 C                     2.43431  -1.0424   -0.10942 
 F                     3.27237  -0.70227  -1.12535 
 F                     2.21851  -2.38051  -0.3337 
 C                     3.14404  -0.89875   1.27082 
 F                     2.17467  -0.83735   2.25059 
 O                     3.89927  -2.05881   1.66127 
 C                     5.10766  -2.22679   0.96664 
 F                     5.60256  -3.44492   1.24785 
 F                     5.99152  -1.29892   1.36286 
 F                     4.9136   -2.13233  -0.35423 
 C                     3.89706   0.42877   1.34785 
 F                     4.77999   0.59714   0.34529 
 F                     4.59255   0.51552   2.51027 
 F                     3.04664   1.48103   1.34423 
 C                     1.14943   0.92828  -0.71102 
 O                     2.1832    1.50558  -1.03902 
 H                    -0.81101   3.12593  -4.81431 
 H                    -0.90836   3.48873  -0.59209 
 H                     0.82027   3.4603   -0.91416 
 
 NAtoms=     43 NQM=       43 NQMF=       0 NMMI=      0 NMMIF=      0
                NMic=       0 NMicF=      0.
                    Isotopes and Nuclear Properties:
 (Nuclear quadrupole moments (NQMom) in fm**2, nuclear magnetic moments (NMagM)
  in nuclear magnetons)

  Atom         1           2           3           4           5           6           7           8           9          10
 IAtWgt=          12          12          12          14          12          16          14          12          19          19
 AtmWgt=  12.0000000  12.0000000  12.0000000  14.0030740  12.0000000  15.9949146  14.0030740  12.0000000  18.9984033  18.9984033
 NucSpn=           0           0           0           2           0           0           2           0           1           1
 AtZEff=   0.0000000   0.0000000   0.0000000   0.0000000   0.0000000   0.0000000   0.0000000   0.0000000   0.0000000   0.0000000
 NQMom=    0.0000000   0.0000000   0.0000000   2.0440000   0.0000000   0.0000000   2.0440000   0.0000000   0.0000000   0.0000000
 NMagM=    0.0000000   0.0000000   0.0000000   0.4037610   0.0000000   0.0000000   0.4037610   0.0000000   2.6288670   2.6288670
 AtZNuc=   6.0000000   6.0000000   6.0000000   7.0000000   6.0000000   8.0000000   7.0000000   6.0000000   9.0000000   9.0000000

  Atom        11          12          13          14          15          16          17          18          19          20
 IAtWgt=          12          19          16          12          19          19          19          12          19          19
 AtmWgt=  12.0000000  18.9984033  15.9949146  12.0000000  18.9984033  18.9984033  18.9984033  12.0000000  18.9984033  18.9984033
 NucSpn=           0           1           0           0           1           1           1           0           1           1
 AtZEff=   0.0000000   0.0000000   0.0000000   0.0000000   0.0000000   0.0000000   0.0000000   0.0000000   0.0000000   0.0000000
 NQMom=    0.0000000   0.0000000   0.0000000   0.0000000   0.0000000   0.0000000   0.0000000   0.0000000   0.0000000   0.0000000
 NMagM=    0.0000000   2.6288670   0.0000000   0.0000000   2.6288670   2.6288670   2.6288670   0.0000000   2.6288670   2.6288670
 AtZNuc=   6.0000000   9.0000000   8.0000000   6.0000000   9.0000000   9.0000000   9.0000000   6.0000000   9.0000000   9.0000000

  Atom        21          22          23          24          25          26          27          28          29          30
 IAtWgt=          19          12          16          14          12          19          19          12          19          16
 AtmWgt=  18.9984033  12.0000000  15.9949146  14.0030740  12.0000000  18.9984033  18.9984033  12.0000000  18.9984033  15.9949146
 NucSpn=           1           0           0           2           0           1           1           0           1           0
 AtZEff=   0.0000000   0.0000000   0.0000000   0.0000000   0.0000000   0.0000000   0.0000000   0.0000000   0.0000000   0.0000000
 NQMom=    0.0000000   0.0000000   0.0000000   2.0440000   0.0000000   0.0000000   0.0000000   0.0000000   0.0000000   0.0000000
 NMagM=    2.6288670   0.0000000   0.0000000   0.4037610   0.0000000   2.6288670   2.6288670   0.0000000   2.6288670   0.0000000
 AtZNuc=   9.0000000   6.0000000   8.0000000   7.0000000   6.0000000   9.0000000   9.0000000   6.0000000   9.0000000   8.0000000

  Atom        31          32          33          34          35          36          37          38          39          40
 IAtWgt=          12          19          19          19          12          19          19          19          12          16
 AtmWgt=  12.0000000  18.9984033  18.9984033  18.9984033  12.0000000  18.9984033  18.9984033  18.9984033  12.0000000  15.9949146
 NucSpn=           0           1           1           1           0           1           1           1           0           0
 AtZEff=   0.0000000   0.0000000   0.0000000   0.0000000   0.0000000   0.0000000   0.0000000   0.0000000   0.0000000   0.0000000
 NQMom=    0.0000000   0.0000000   0.0000000   0.0000000   0.0000000   0.0000000   0.0000000   0.0000000   0.0000000   0.0000000
 NMagM=    0.0000000   2.6288670   2.6288670   2.6288670   0.0000000   2.6288670   2.6288670   2.6288670   0.0000000   0.0000000
 AtZNuc=   6.0000000   9.0000000   9.0000000   9.0000000   6.0000000   9.0000000   9.0000000   9.0000000   6.0000000   8.0000000

  Atom        41          42          43
 IAtWgt=           1           1           1
 AtmWgt=   1.0078250   1.0078250   1.0078250
 NucSpn=           1           1           1
 AtZEff=   0.0000000   0.0000000   0.0000000
 NQMom=    0.0000000   0.0000000   0.0000000
 NMagM=    2.7928460   2.7928460   2.7928460
 AtZNuc=   1.0000000   1.0000000   1.0000000
 Leave Link  101 at Sun Mar  3 18:13:02 2024, MaxMem=  5368709120 cpu:         1.1
 (Enter /home/k0335/k033513/app/g09/l202.exe)
                          Input orientation:                          
 ---------------------------------------------------------------------
 Center     Atomic      Atomic             Coordinates (Angstroms)
 Number     Number       Type             X           Y           Z
 ---------------------------------------------------------------------
      1          6           0       -0.615303    3.076767   -3.767347
      2          6           0       -0.394267    3.024442   -2.587903
      3          6           0       -0.124993    2.955339   -1.142204
      4          7           0       -0.070040    1.564619   -0.704380
      5          6           0       -1.242421    0.948842   -0.333642
      6          8           0       -2.300564    1.567248   -0.277144
      7          7           0       -1.173498   -0.380044   -0.023902
      8          6           0       -2.349790   -1.088749    0.477228
      9          9           0       -2.142755   -2.426341    0.244175
     10          9           0       -2.354786   -0.972529    1.837346
     11          6           0       -3.797477   -0.814224   -0.045674
     12          9           0       -4.623820   -1.792838    0.465641
     13          8           0       -4.459688    0.407683    0.275150
     14          6           0       -4.516939    0.670722    1.653806
     15          9           0       -4.841877   -0.427219    2.355644
     16          9           0       -3.333274    1.143352    2.084570
     17          9           0       -5.455471    1.612362    1.871394
     18          6           0       -3.768666   -1.031946   -1.559280
     19          9           0       -3.363972   -2.280519   -1.890108
     20          9           0       -2.930994   -0.182673   -2.198032
     21          9           0       -4.994813   -0.861196   -2.111775
     22          6           0        0.044173   -0.950002    0.288129
     23          8           0        0.150308   -1.900002    1.058674
     24          7           0        1.152658   -0.371338   -0.284724
     25          6           0        2.434308   -1.042401   -0.109423
     26          9           0        3.272367   -0.702273   -1.125347
     27          9           0        2.218511   -2.380511   -0.333702
     28          6           0        3.144043   -0.898747    1.270815
     29          9           0        2.174666   -0.837351    2.250590
     30          8           0        3.899270   -2.058807    1.661268
     31          6           0        5.107663   -2.226786    0.966636
     32          9           0        5.602557   -3.444919    1.247847
     33          9           0        5.991522   -1.298916    1.362862
     34          9           0        4.913603   -2.132327   -0.354232
     35          6           0        3.897056    0.428767    1.347851
     36          9           0        4.779989    0.597142    0.345291
     37          9           0        4.592546    0.515519    2.510274
     38          9           0        3.046636    1.481029    1.344225
     39          6           0        1.149432    0.928278   -0.711017
     40          8           0        2.183204    1.505581   -1.039015
     41          1           0       -0.811013    3.125929   -4.814309
     42          1           0       -0.908357    3.488730   -0.592093
     43          1           0        0.820265    3.460304   -0.914164
 ---------------------------------------------------------------------
                    Distance matrix (angstroms):
                    1          2          3          4          5
     1  C    0.000000
     2  C    1.201117   0.000000
     3  C    2.673298   1.472185   0.000000
     4  N    3.459143   2.404967   1.459045   0.000000
     5  C    4.087991   3.179493   2.434840   1.375175   0.000000
     6  O    4.159359   3.331214   2.721807   2.271073   1.226900
     7  N    5.125866   4.332647   3.670796   2.337174   1.366246
     8  C    6.194868   5.489758   4.891516   3.692400   2.456736
     9  F    6.979227   6.386620   5.912351   4.596049   3.540669
    10  F    7.129880   6.277120   5.410900   4.256472   3.105191
    11  C    6.254350   5.725393   5.375790   4.470635   3.117633
    12  F    7.596015   7.100664   6.735710   5.777402   4.426005
    13  O    6.184261   5.618910   5.223890   4.644027   3.318778
    14  C    7.099346   6.366201   5.685625   5.112241   3.840543
    15  F    8.223920   7.492253   6.776845   6.008460   4.699137
    16  F    6.735755   5.831661   4.897799   4.313282   3.202694
    17  F    7.574108   6.891668   6.268920   5.969904   4.801274
    18  C    5.630345   5.375771   5.417448   4.599221   3.436222
    19  F    6.307117   6.119532   6.201980   5.200099   4.165614
    20  F    4.295244   4.107623   4.339992   3.670025   2.758180
    21  F    6.117890   6.040687   6.262679   5.667339   4.529728
    22  C    5.752970   4.925444   4.162470   2.705815   2.376454
    23  O    6.974587   6.151767   5.337976   3.893650   3.463257
    24  N    5.209969   4.385081   3.665303   2.327881   2.735264
    25  C    6.296672   5.539216   4.857837   3.663644   4.187321
    26  F    6.031193   5.428783   4.992040   4.060505   4.871990
    27  F    7.042890   6.412609   5.883620   4.575906   4.802358
    28  C    7.437773   6.542229   5.600289   4.505541   5.022841
    29  F    7.701936   6.702528   5.584262   4.420409   4.641683
    30  O    8.730713   7.894893   7.013972   5.872046   6.281927
    31  C    9.126369   8.395319   7.660438   6.631414   7.217957
    32  F   10.312436   9.619122   8.915182   7.815690   8.286131
    33  F    9.440116   8.664772   7.860394   7.015401   7.762762
    34  F    8.327834   7.730138   7.203658   6.215039   6.884087
    35  C    7.317003   6.375197   5.362911   4.608651   5.432506
    36  F    7.222985   6.424044   5.642037   5.055749   6.070755
    37  F    8.549281   7.560053   6.445812   5.759715   6.505572
    38  F    6.487245   5.448263   4.291288   3.730608   4.636213
    39  C    4.131761   3.209301   2.432911   1.375531   2.421528
    40  O    4.212370   3.368880   2.727677   2.278722   3.541527
    41  H    1.066231   2.267347   3.739529   4.458503   5.000220
    42  H    3.215250   2.112607   1.095804   2.101806   2.574767
    43  H    3.216925   2.113402   1.095675   2.104822   3.301382
                    6          7          8          9         10
     6  O    0.000000
     7  N    2.264146   0.000000
     8  C    2.761489   1.461868   0.000000
     9  F    4.030562   2.280056   1.373437   0.000000
    10  F    3.305219   2.282701   1.365084   2.167192   0.000000
    11  C    2.822364   2.659747   1.563518   2.328312   2.377432
    12  F    4.152039   3.760367   2.380565   2.570225   2.775427
    13  O    2.512257   3.392490   2.594574   3.660714   2.962441
    14  C    3.073214   3.885539   3.029292   4.149170   2.721923
    15  F    4.167462   4.372810   3.190073   3.967373   2.598387
    16  F    2.612254   3.380979   2.921141   4.188926   2.344251
    17  F    3.817288   5.088921   4.345682   5.471111   4.036963
    18  C    3.248847   3.085005   2.482700   2.800067   3.679627
    19  F    4.305555   3.448580   2.837809   2.463290   4.077157
    20  F    2.673850   2.802604   2.883711   3.408774   4.152128
    21  F    4.064750   4.381001   3.708216   4.016767   4.751599
    22  C    3.486240   1.380195   2.405425   2.638970   2.855798
    23  O    4.451180   2.287948   2.691970   2.489695   2.782451
    24  N    3.960166   2.340749   3.655460   3.919505   4.143281
    25  C    5.409012   3.669100   4.820156   4.794771   5.170127
    26  F    6.076819   4.591593   5.858862   5.845643   6.365174
    27  F    6.000837   3.950135   4.816184   4.399623   5.254608
    28  C    6.174225   4.537235   5.554105   5.598014   5.528428
    29  F    5.674436   4.073407   4.866078   5.019035   4.550272
    30  O    7.439332   5.602769   6.433795   6.216856   6.350135
    31  C    8.415671   6.621526   7.559646   7.289056   7.617049
    32  F    9.481916   7.544914   8.329779   7.876212   8.353414
    33  F    8.925425   7.355607   8.390829   8.287883   8.366153
    34  F    8.107836   6.342903   7.384935   7.087787   7.679689
    35  C    6.507476   5.314734   6.487212   6.771193   6.425633
    36  F    7.173755   6.044436   7.327577   7.554870   7.456213
    37  F    7.509381   6.361709   7.409655   7.691165   7.136704
    38  F    5.588275   4.810914   6.039607   6.588431   5.953022
    39  C    3.535393   2.753150   4.210092   4.796286   4.731465
    40  O    4.548453   3.981643   5.438527   5.985024   5.916742
    41  H    5.023357   5.947373   6.937702   7.628204   7.963988
    42  H    2.393643   3.919254   4.916756   6.100094   5.281776
    43  H    3.705270   4.417684   5.716564   6.691325   6.107517
                   11         12         13         14         15
    11  C    0.000000
    12  F    1.379120   0.000000
    13  O    1.426362   2.214841   0.000000
    14  C    2.368739   2.737204   1.404692   0.000000
    15  F    2.647050   2.341917   2.274112   1.342995   0.000000
    16  F    2.930107   3.592722   2.254777   1.345362   2.194552
    17  F    3.508905   3.776661   2.234017   1.347172   2.184236
    18  C    1.529456   2.326059   2.432114   3.712535   4.104157
    19  F    2.395806   2.715622   3.621514   4.753786   4.862647
    20  F    2.404640   3.543084   2.966826   4.252077   4.944415
    21  F    2.388429   2.765622   2.755689   4.093255   4.491053
    22  C    3.858515   4.746793   4.704066   5.029469   5.331173
    23  O    4.240696   4.812013   5.214536   5.361529   5.364059
    24  N    4.975654   5.995949   5.693747   6.081786   6.550505
    25  C    6.236287   7.121167   7.055340   7.373168   7.707002
    26  F    7.152686   8.128367   7.935872   8.383442   8.833680
    27  F    6.223209   6.913885   7.262442   7.656794   7.803654
    28  C    7.065762   7.860496   7.779128   7.829467   8.073048
    29  F    6.398426   7.093547   7.033287   6.885348   7.029304
    30  O    7.981388   8.610652   8.824799   8.847766   8.919187
    31  C    9.073126   9.754028   9.947501  10.074757  10.205936
    32  F    9.846542  10.388455  10.818385  10.931949  10.927943
    33  F    9.901687  10.664635  10.645346  10.695414  10.913661
    34  F    8.815641   9.578616   9.731719  10.041137  10.267435
    35  C    7.917877   8.849811   8.425337   8.423032   8.838400
    36  F    8.701594   9.703510   9.241885   9.388850   9.882871
    37  F    8.870940   9.718562   9.324717   9.150975   9.482669
    38  F    7.351319   8.386060   7.657669   7.613153   8.178815
    39  C    5.286861   6.489949   5.718896   6.145444   6.865680
    40  O    6.491284   7.712272   6.860060   7.269126   8.038109
    41  H    6.869036   8.161473   6.826733   7.848467   8.959964
    42  H    5.211622   6.543579   4.780890   5.099715   6.284615
    43  H    6.352118   7.690086   6.213764   6.546906   7.606861
                   16         17         18         19         20
    16  F    0.000000
    17  F    2.183835   0.000000
    18  C    4.266044   4.648355   0.000000
    19  F    5.246132   5.803257   1.353573   0.000000
    20  F    4.501206   5.114231   1.353131   2.164081   0.000000
    21  F    4.938445   4.711298   1.355671   2.173305   2.174208
    22  C    4.360789   6.270448   4.237614   4.257986   3.952393
    23  O    4.738123   6.664981   4.792240   4.603289   4.801018
    24  N    5.294471   7.228505   5.126434   5.159668   4.513597
    25  C    6.546459   8.556869   6.370171   6.190624   5.821330
    26  F    7.572608   9.513840   7.062091   6.864162   6.316829
    27  F    7.006281   8.927233   6.258351   5.796250   5.901154
    28  C    6.840176   8.978753   7.470791   7.365798   7.032193
    29  F    5.855608   8.022710   7.062306   7.064321   6.803426
    30  O    7.921029  10.051508   8.379953   8.088023   8.066386
    31  C    9.157348  11.275524   9.305757   8.940496   8.877698
    32  F   10.079753  12.175586  10.075824   9.570853   9.764109
    33  F    9.666300  11.822343  10.191735   9.953423   9.671466
    34  F    9.202652  11.246946   8.834295   8.420162   8.290866
    35  C    7.302812   9.441650   8.327568   8.399234   7.718122
    36  F    8.315556  10.398284   8.908469   8.921998   8.156952
    37  F    7.962036  10.127876   9.426865   9.512485   8.902768
    38  F    6.431593   8.519447   7.822642   8.105927   7.144757
    39  C    5.287364   7.124715   5.361876   5.661930   4.482778
    40  O    6.349766   8.175038   6.491107   6.769791   5.508951
    41  H    7.608347   8.280127   6.052342   6.655692   4.720813
    42  H    4.306454   5.501434   5.436297   6.403056   4.488797
    43  H    5.622505   7.110491   6.454051   7.170590   5.384379
                   21         22         23         24         25
    21  F    0.000000
    22  C    5.582007   0.000000
    23  O    6.132140   1.227805   0.000000
    24  N    6.431911   1.375410   2.268532   0.000000
    25  C    7.696368   2.424733   2.704919   1.457286   0.000000
    26  F    8.327338   3.532778   3.993965   2.304199   1.360195
    27  F    7.583001   2.675963   2.539107   2.274910   1.373830
    28  C    8.813870   3.252306   3.163853   2.581371   1.558659
    29  F    8.392391   2.898783   2.578355   2.772992   2.383091
    30  O    9.735237   4.239898   3.800402   3.765410   2.512875
    31  C   10.649013   5.265879   4.968966   4.544299   3.115686
    32  F   11.413454   6.167763   5.670059   5.621145   4.201437
    33  F   11.531013   6.053739   5.879933   5.195146   3.858393
    34  F   10.143049   5.051917   4.973857   4.153387   2.719333
    35  C    9.627998   4.227141   4.420962   3.291989   2.535274
    36  F   10.183844   4.982457   5.308351   3.806889   2.897772
    37  F   10.732014   5.270045   5.260738   4.520106   3.734691
    38  F    9.060621   4.005001   4.461124   3.109966   2.975859
    39  C    6.551037   2.397462   3.482703   1.367749   2.428250
    40  O    7.633896   3.516625   4.486754   2.270199   2.723859
    41  H    6.380050   6.586306   7.789483   6.050126   7.074110
    42  H    6.158767   4.624332   5.734478   4.386614   5.651330
    43  H    7.343348   4.636661   5.750984   3.897199   4.850474
                   26         27         28         29         30
    26  F    0.000000
    27  F    2.133963   0.000000
    28  C    2.407626   2.372068   0.000000
    29  F    3.552484   3.010287   1.379645   0.000000
    30  O    3.162027   2.628374   1.438249   2.193972   0.000000
    31  C    3.173144   3.172020   2.389982   3.490206   1.403903
    32  F    4.310910   3.884074   3.539465   4.422142   2.234594
    33  F    3.733761   4.275955   2.876933   3.945820   2.245885
    34  F    2.309400   2.706573   2.700711   3.995477   2.257547
    35  C    2.790376   3.679290   1.528155   2.320478   2.507241
    36  F    2.474708   3.986053   2.402207   3.532088   3.092172
    37  F    4.055075   4.702258   2.373724   2.782775   2.797963
    38  F    3.304020   4.291005   2.382900   2.637559   3.654852
    39  C    2.708730   3.497625   3.353230   3.597175   4.702342
    40  O    2.463402   3.949737   3.469772   4.038676   4.789705
    41  H    6.703549   7.718467   8.298748   8.633346   9.539463
    42  H    5.943679   6.655228   6.256383   6.025019   7.678937
    43  H    4.835747   6.033834   5.401426   5.506352   6.824493
                   31         32         33         34         35
    31  C    0.000000
    32  F    1.344562   0.000000
    33  F    1.341322   2.183999   0.000000
    34  F    1.338385   2.182708   2.192007   0.000000
    35  C    2.943273   4.233696   2.715125   3.238774   0.000000
    36  F    2.909984   4.222497   2.469473   2.820848   1.346494
    37  F    3.188793   4.277723   2.562394   3.914021   1.357372
    38  F    4.258908   5.550404   4.049790   4.407569   1.352953
    39  C    5.332592   6.541584   5.719021   4.864523   3.469566
    40  O    5.148365   6.436549   5.304479   4.599824   3.129528
    41  H    9.854015  11.002711  10.198587   8.961739   8.210531
    42  H    8.443297   9.687769   8.622745   8.096177   6.018202
    43  H    7.366287   8.673333   7.387619   6.953162   4.875815
                   36         37         38         39         40
    36  F    0.000000
    37  F    2.174615   0.000000
    38  F    2.187153   2.163728   0.000000
    39  C    3.795574   4.733088   2.851129   0.000000
    40  O    3.079749   4.402568   2.534946   1.228636   0.000000
    41  H    8.017203   9.469013   7.450818   5.050744   5.083671
    42  H    6.449593   6.980301   4.839645   3.287028   3.700050
    43  H    5.046121   5.884610   3.738259   2.561401   2.386238
                   41         42         43
    41  H    0.000000
    42  H    4.238892   0.000000
    43  H    4.240755   1.758599   0.000000
 Symmetry turned off by external request.
 Stoichiometry    C14H3F18N3O5
 Framework group  C1[X(C14H3F18N3O5)]
 Deg. of freedom   123
 Full point group                 C1      NOp   1
 Rotational constants (GHZ):      0.1766973      0.0545629      0.0518073
 Leave Link  202 at Sun Mar  3 18:13:02 2024, MaxMem=  5368709120 cpu:         0.1
 (Enter /home/k0335/k033513/app/g09/l301.exe)
 Standard basis: 6-31G(d,p) (6D, 7F)
 Ernie: Thresh=  0.10000D-02 Tol=  0.10000D-05 Strict=F.
   615 basis functions,  1141 primitive gaussians,   615 cartesian basis functions
   155 alpha electrons      155 beta electrons
       nuclear repulsion energy      5992.3634958587 Hartrees.
 IExCor=20419 DFT=T Ex+Corr=CAM-B3LYP ExCW=0 ScaHFX=  1.000000
 ScaDFX=  1.000000  1.000000  1.000000  0.810000 ScalE2=  1.000000  1.000000
 IRadAn=      0 IRanWt=     -1 IRanGd=            0 ICorTp=0 IEmpDi=  4
  HFx wShort=  0.000000 wLong=  0.330000 cFull=  0.190000 cShort=  0.000000 cLong=  0.460000
  DFx wShort=  0.000000 wLong=  0.330000 cFull=  0.190000 cShort=  0.000000 cLong=  0.460000
 NAtoms=   43 NActive=   43 NUniq=   43 SFac= 1.00D+00 NAtFMM=   60 NAOKFM=F Big=F
 Integral buffers will be    131072 words long.
 Raffenetti 2 integral format.
 Two-electron integral symmetry is turned off.
 Using the following non-standard input for PCM:
 eps=4.9
 --- end of non-standard input.
 ------------------------------------------------------------------------------
 Polarizable Continuum Model (PCM)
 =================================
 Model                : PCM (using non-symmetric T matrix).
 Atomic radii         : UFF (Universal Force Field).
 Polarization charges : Total charges.
 Charge compensation  : None.
 Solution method      : On-the-fly selection.
 Cavity type          : Scaled VdW (van der Waals Surface) (Alpha=1.100).
 Cavity algorithm     : GePol (No added spheres)
                        Default sphere list used, NSphG=   43.
                        Lebedev-Laikov grids with approx.  5.0 points / Ang**2.
                        Smoothing algorithm: Karplus/York (Gamma=1.0000).
                        Polarization charges: spherical gaussians, with
                                              point-specific exponents (IZeta= 3).
                        Self-potential: point-specific (ISelfS= 7).
                        Self-field    : sphere-specific E.n sum rule (ISelfD= 2).
 Solvent              : Generic,
                        Eps                           =   4.900000
                        Eps(infinity)                 =   0.000000
                        RSolv                         =   0.000000 Ang.
                        Molar volume                  =   0.000000 cm**3/mol
                        Thermal expansion coefficient =   0.000000 K**-1
                        Absolute temperature          = 298.150000 K
                        Numeral density               =   0.000000 Ang**-3
                        Hydrogen bond acidity         =   0.000000
                        Hydrogen bond basicity        =   0.000000
                        Surface tension at interface  =   0.000000 (cal/mol)*Ang**-2
                        Carbon aromaticity            =   0.000000
                        Electronegative halogenicity  =   0.000000
 ------------------------------------------------------------------------------
 GePol: Number of generator spheres                  =      43
 GePol: Total number of spheres                      =      43
 GePol: Number of exposed spheres                    =      43 (100.00%)
 GePol: Number of points                             =    3610
 GePol: Average weight of points                     =       0.13
 GePol: Minimum weight of points                     =   0.40D-10
 GePol: Maximum weight of points                     =    0.20577
 GePol: Number of points with low weight             =     158
 GePol: Fraction of low-weight points (<1% of avg)   =       4.38%
 GePol: Cavity surface area                          =    453.136 Ang**2
 GePol: Cavity volume                                =    531.465 Ang**3
 Leave Link  301 at Sun Mar  3 18:13:02 2024, MaxMem=  5368709120 cpu:         1.0
 (Enter /home/k0335/k033513/app/g09/l302.exe)
 NPDir=0 NMtPBC=     1 NCelOv=     1 NCel=       1 NClECP=     1 NCelD=      1
         NCelK=      1 NCelE2=     1 NClLst=     1 CellRange=     0.0.
 One-electron integrals computed using PRISM.
 NBasis=   615 RedAO= T EigKep=  4.59D-04  NBF=   615
 NBsUse=   615 1.00D-06 EigRej= -1.00D+00 NBFU=   615
 Precomputing XC quadrature grid using
 IXCGrd= 4 IRadAn=           0 IRanWt=          -1 IRanGd=           0 AccXCQ= 0.00D+00.
 Generated NRdTot=       0 NPtTot=           0 NUsed=           0 NTot=          32
 NSgBfM=   598   598   601   601   601 MxSgAt=    43 MxSgA2=    43.
 Leave Link  302 at Sun Mar  3 18:13:03 2024, MaxMem=  5368709120 cpu:        13.6
 (Enter /home/k0335/k033513/app/g09/l303.exe)
 DipDrv:  MaxL=1.
 Leave Link  303 at Sun Mar  3 18:13:03 2024, MaxMem=  5368709120 cpu:         1.0
 (Enter /home/k0335/k033513/app/g09/l401.exe)
 ExpMin= 1.61D-01 ExpMax= 7.00D+03 ExpMxC= 1.05D+03 IAcc=1 IRadAn=         1 AccDes= 0.00D+00
 Harris functional with IExCor=20419 and IRadAn=       1 diagonalized for initial guess.
 HarFok:  IExCor=20419 AccDes= 0.00D+00 IRadAn=         1 IDoV= 1 UseB2=F ITyADJ=14
 ICtDFT=  3500011 ScaDFX=  1.000000  1.000000  1.000000  1.000000
 FoFCou: FMM=F IPFlag=           0 FMFlag=      100000 FMFlg1=           0
         NFxFlg=           0 DoJE=T BraDBF=F KetDBF=T FulRan=T
         wScrn=  0.000000 ICntrl=     500 IOpCl=  0 I1Cent=   200000004 NGrid=           0
         NMat0=    1 NMatS0=      1 NMatT0=    0 NMatD0=    1 NMtDS0=    0 NMtDT0=    0
 Symmetry not used in FoFCou.
 Harris En= -2785.79571612701    
 JPrj=0 DoOrth=F DoCkMO=F.
 Leave Link  401 at Sun Mar  3 18:13:04 2024, MaxMem=  5368709120 cpu:        14.8
 (Enter /home/k0335/k033513/app/g09/l502.exe)
 Closed shell SCF:
 Using DIIS extrapolation, IDIIS=  1040.
 Two-electron integral symmetry not used.
 IVT=     1171761 IEndB=     1171761 NGot=  5368709120 MDV=  5367932840
 LenX=  5367932840 LenY=  5367554000
 Requested convergence on RMS density matrix=1.00D-08 within 128 cycles.
 Requested convergence on MAX density matrix=1.00D-06.
 Requested convergence on             energy=1.00D-06.
 No special actions if energy rises.
 Fock matrices will be formed incrementally for  20 cycles.

 Cycle   1  Pass 1  IDiag  1:
 FoFJK:  IHMeth= 1 ICntrl=       0 DoSepK=T KAlg= 0 I1Cent=   0 FoldK=F
 IRaf=         1 NMat=   1 IRICut=       1 DoRegI=T DoRafI=F ISym2E= 0.
 FoFCou: FMM=F IPFlag=           0 FMFlag=      100000 FMFlg1=           0
         NFxFlg=           0 DoJE=T BraDBF=F KetDBF=F FulRan=T
         wScrn=  0.000000 ICntrl=     500 IOpCl=  0 I1Cent=           0 NGrid=           0
         NMat0=    1 NMatS0=      1 NMatT0=    0 NMatD0=    1 NMtDS0=    0 NMtDT0=    0
 Symmetry not used in FoFCou.
 Inv3:  Mode=1 IEnd=    39096300.
 Iteration    1 A*A^-1 deviation from unit magnitude is 7.11D-15 for   1350.
 Iteration    1 A*A^-1 deviation from orthogonality  is 3.10D-15 for   1476    895.
 Iteration    1 A^-1*A deviation from unit magnitude is 7.11D-15 for    892.
 Iteration    1 A^-1*A deviation from orthogonality  is 6.66D-12 for   3313   3309.
 E= -2870.94901716102    
 DIIS: error= 4.88D-02 at cycle   1 NSaved=   1.
 NSaved= 1 IEnMin= 1 EnMin= -2870.94901716102     IErMin= 1 ErrMin= 4.88D-02
 ErrMax= 4.88D-02  0.00D+00 EMaxC= 1.00D-01 BMatC= 2.38D+00 BMatP= 2.38D+00
 IDIUse=3 WtCom= 5.12D-01 WtEn= 4.88D-01
 Coeff-Com:  0.100D+01
 Coeff-En:   0.100D+01
 Coeff:      0.100D+01
 Gap=     0.603 Goal=   None    Shift=    0.000
 GapD=    0.603 DampG=2.000 DampE=0.500 DampFc=1.0000 IDamp=-1.
 RMSDP=3.09D-03 MaxDP=1.57D-01              OVMax= 2.19D-01

 Cycle   2  Pass 1  IDiag  1:
 RMSU=  3.09D-03    CP:  1.00D+00
 E= -2871.30254830305     Delta-E=       -0.353531142031 Rises=F Damp=F
 DIIS: error= 2.08D-02 at cycle   2 NSaved=   2.
 NSaved= 2 IEnMin= 2 EnMin= -2871.30254830305     IErMin= 2 ErrMin= 2.08D-02
 ErrMax= 2.08D-02  0.00D+00 EMaxC= 1.00D-01 BMatC= 9.20D-01 BMatP= 2.38D+00
 IDIUse=3 WtCom= 7.92D-01 WtEn= 2.08D-01
 Coeff-Com:  0.362D+00 0.638D+00
 Coeff-En:   0.351D+00 0.649D+00
 Coeff:      0.360D+00 0.640D+00
 Gap=     0.349 Goal=   None    Shift=    0.000
 RMSDP=1.68D-03 MaxDP=1.53D-01 DE=-3.54D-01 OVMax= 1.43D-01

 Cycle   3  Pass 1  IDiag  1:
 RMSU=  1.07D-03    CP:  1.00D+00  5.81D-01
 E= -2871.70706051232     Delta-E=       -0.404512209274 Rises=F Damp=F
 DIIS: error= 1.45D-02 at cycle   3 NSaved=   3.
 NSaved= 3 IEnMin= 3 EnMin= -2871.70706051232     IErMin= 3 ErrMin= 1.45D-02
 ErrMax= 1.45D-02  0.00D+00 EMaxC= 1.00D-01 BMatC= 2.61D-01 BMatP= 9.20D-01
 IDIUse=3 WtCom= 8.55D-01 WtEn= 1.45D-01
 Coeff-Com:  0.116D+00 0.364D+00 0.521D+00
 Coeff-En:   0.000D+00 0.231D+00 0.769D+00
 Coeff:      0.988D-01 0.344D+00 0.557D+00
 Gap=     0.364 Goal=   None    Shift=    0.000
 RMSDP=8.18D-04 MaxDP=7.55D-02 DE=-4.05D-01 OVMax= 1.03D-01

 Cycle   4  Pass 1  IDiag  1:
 RMSU=  3.42D-04    CP:  1.00D+00  6.98D-01  3.94D-01
 E= -2871.87468056798     Delta-E=       -0.167620055661 Rises=F Damp=F
 DIIS: error= 4.68D-03 at cycle   4 NSaved=   4.
 NSaved= 4 IEnMin= 4 EnMin= -2871.87468056798     IErMin= 4 ErrMin= 4.68D-03
 ErrMax= 4.68D-03  0.00D+00 EMaxC= 1.00D-01 BMatC= 2.62D-02 BMatP= 2.61D-01
 IDIUse=3 WtCom= 9.53D-01 WtEn= 4.68D-02
 Coeff-Com:  0.737D-02 0.935D-01 0.291D+00 0.608D+00
 Coeff-En:   0.000D+00 0.000D+00 0.610D-01 0.939D+00
 Coeff:      0.703D-02 0.892D-01 0.280D+00 0.624D+00
 Gap=     0.357 Goal=   None    Shift=    0.000
 RMSDP=2.51D-04 MaxDP=2.50D-02 DE=-1.68D-01 OVMax= 2.57D-02

 Cycle   5  Pass 1  IDiag  1:
 RMSU=  1.04D-04    CP:  9.99D-01  6.86D-01  5.78D-01  6.86D-01
 E= -2871.89203896039     Delta-E=       -0.017358392402 Rises=F Damp=F
 DIIS: error= 8.36D-04 at cycle   5 NSaved=   5.
 NSaved= 5 IEnMin= 5 EnMin= -2871.89203896039     IErMin= 5 ErrMin= 8.36D-04
 ErrMax= 8.36D-04  0.00D+00 EMaxC= 1.00D-01 BMatC= 1.77D-03 BMatP= 2.62D-02
 IDIUse=3 WtCom= 9.92D-01 WtEn= 8.36D-03
 Coeff-Com: -0.179D-02 0.280D-01 0.120D+00 0.344D+00 0.510D+00
 Coeff-En:   0.000D+00 0.000D+00 0.000D+00 0.000D+00 0.100D+01
 Coeff:     -0.177D-02 0.278D-01 0.119D+00 0.341D+00 0.514D+00
 Gap=     0.339 Goal=   None    Shift=    0.000
 RMSDP=5.62D-05 MaxDP=3.94D-03 DE=-1.74D-02 OVMax= 5.31D-03

 Cycle   6  Pass 1  IDiag  1:
 RMSU=  2.70D-05    CP:  9.99D-01  6.91D-01  5.62D-01  7.20D-01  6.01D-01
 E= -2871.89327928015     Delta-E=       -0.001240319767 Rises=F Damp=F
 DIIS: error= 1.03D-04 at cycle   6 NSaved=   6.
 NSaved= 6 IEnMin= 6 EnMin= -2871.89327928015     IErMin= 6 ErrMin= 1.03D-04
 ErrMax= 1.03D-04  0.00D+00 EMaxC= 1.00D-01 BMatC= 3.05D-05 BMatP= 1.77D-03
 IDIUse=3 WtCom= 9.99D-01 WtEn= 1.03D-03
 Coeff-Com: -0.731D-03-0.203D-02 0.410D-03 0.200D-01 0.129D+00 0.853D+00
 Coeff-En:   0.000D+00 0.000D+00 0.000D+00 0.000D+00 0.000D+00 0.100D+01
 Coeff:     -0.730D-03-0.203D-02 0.409D-03 0.200D-01 0.129D+00 0.853D+00
 Gap=     0.340 Goal=   None    Shift=    0.000
 RMSDP=1.20D-05 MaxDP=8.53D-04 DE=-1.24D-03 OVMax= 8.53D-04

 Cycle   7  Pass 1  IDiag  1:
 RMSU=  8.41D-06    CP:  9.99D-01  6.90D-01  5.65D-01  7.33D-01  6.63D-01
                    CP:  9.79D-01
 E= -2871.89330444244     Delta-E=       -0.000025162282 Rises=F Damp=F
 DIIS: error= 4.66D-05 at cycle   7 NSaved=   7.
 NSaved= 7 IEnMin= 7 EnMin= -2871.89330444244     IErMin= 7 ErrMin= 4.66D-05
 ErrMax= 4.66D-05  0.00D+00 EMaxC= 1.00D-01 BMatC= 4.56D-06 BMatP= 3.05D-05
 IDIUse=1 WtCom= 1.00D+00 WtEn= 0.00D+00
 Coeff-Com: -0.167D-03-0.271D-02-0.722D-02-0.132D-01 0.260D-01 0.366D+00
 Coeff-Com:  0.631D+00
 Coeff:     -0.167D-03-0.271D-02-0.722D-02-0.132D-01 0.260D-01 0.366D+00
 Coeff:      0.631D+00
 Gap=     0.340 Goal=   None    Shift=    0.000
 RMSDP=3.74D-06 MaxDP=3.12D-04 DE=-2.52D-05 OVMax= 5.08D-04

 Cycle   8  Pass 1  IDiag  1:
 RMSU=  2.54D-06    CP:  9.99D-01  6.90D-01  5.66D-01  7.33D-01  6.72D-01
                    CP:  1.04D+00  7.98D-01
 E= -2871.89330813454     Delta-E=       -0.000003692099 Rises=F Damp=F
 DIIS: error= 1.38D-05 at cycle   8 NSaved=   8.
 NSaved= 8 IEnMin= 8 EnMin= -2871.89330813454     IErMin= 8 ErrMin= 1.38D-05
 ErrMax= 1.38D-05  0.00D+00 EMaxC= 1.00D-01 BMatC= 4.34D-07 BMatP= 4.56D-06
 IDIUse=1 WtCom= 1.00D+00 WtEn= 0.00D+00
 Coeff-Com:  0.344D-05-0.959D-03-0.298D-02-0.790D-02-0.328D-02 0.526D-01
 Coeff-Com:  0.252D+00 0.711D+00
 Coeff:      0.344D-05-0.959D-03-0.298D-02-0.790D-02-0.328D-02 0.526D-01
 Coeff:      0.252D+00 0.711D+00
 Gap=     0.340 Goal=   None    Shift=    0.000
 RMSDP=1.39D-06 MaxDP=1.29D-04 DE=-3.69D-06 OVMax= 1.67D-04

 Cycle   9  Pass 1  IDiag  1:
 RMSU=  9.87D-07    CP:  9.99D-01  6.90D-01  5.66D-01  7.33D-01  6.76D-01
                    CP:  1.06D+00  8.72D-01  9.67D-01
 E= -2871.89330851427     Delta-E=       -0.000000379736 Rises=F Damp=F
 DIIS: error= 6.46D-06 at cycle   9 NSaved=   9.
 NSaved= 9 IEnMin= 9 EnMin= -2871.89330851427     IErMin= 9 ErrMin= 6.46D-06
 ErrMax= 6.46D-06  0.00D+00 EMaxC= 1.00D-01 BMatC= 6.86D-08 BMatP= 4.34D-07
 IDIUse=1 WtCom= 1.00D+00 WtEn= 0.00D+00
 Coeff-Com:  0.236D-04-0.244D-04-0.190D-03-0.165D-02-0.595D-02-0.386D-01
 Coeff-Com:  0.159D-01 0.315D+00 0.715D+00
 Coeff:      0.236D-04-0.244D-04-0.190D-03-0.165D-02-0.595D-02-0.386D-01
 Coeff:      0.159D-01 0.315D+00 0.715D+00
 Gap=     0.340 Goal=   None    Shift=    0.000
 RMSDP=6.29D-07 MaxDP=7.88D-05 DE=-3.80D-07 OVMax= 1.06D-04

 Cycle  10  Pass 1  IDiag  1:
 RMSU=  3.70D-07    CP:  9.99D-01  6.90D-01  5.66D-01  7.33D-01  6.78D-01
                    CP:  1.07D+00  8.99D-01  1.09D+00  9.01D-01
 E= -2871.89330858159     Delta-E=       -0.000000067321 Rises=F Damp=F
 DIIS: error= 3.63D-06 at cycle  10 NSaved=  10.
 NSaved=10 IEnMin=10 EnMin= -2871.89330858159     IErMin=10 ErrMin= 3.63D-06
 ErrMax= 3.63D-06  0.00D+00 EMaxC= 1.00D-01 BMatC= 9.95D-09 BMatP= 6.86D-08
 IDIUse=1 WtCom= 1.00D+00 WtEn= 0.00D+00
 Coeff-Com:  0.978D-05 0.997D-04 0.279D-03 0.129D-03-0.230D-02-0.246D-01
 Coeff-Com: -0.197D-01 0.715D-01 0.346D+00 0.629D+00
 Coeff:      0.978D-05 0.997D-04 0.279D-03 0.129D-03-0.230D-02-0.246D-01
 Coeff:     -0.197D-01 0.715D-01 0.346D+00 0.629D+00
 Gap=     0.340 Goal=   None    Shift=    0.000
 RMSDP=1.95D-07 MaxDP=1.89D-05 DE=-6.73D-08 OVMax= 2.66D-05

 Cycle  11  Pass 1  IDiag  1:
 RMSU=  1.31D-07    CP:  9.99D-01  6.90D-01  5.67D-01  7.33D-01  6.78D-01
                    CP:  1.07D+00  9.08D-01  1.10D+00  9.91D-01  8.74D-01
 E= -2871.89330858950     Delta-E=       -0.000000007905 Rises=F Damp=F
 DIIS: error= 1.11D-06 at cycle  11 NSaved=  11.
 NSaved=11 IEnMin=11 EnMin= -2871.89330858950     IErMin=11 ErrMin= 1.11D-06
 ErrMax= 1.11D-06  0.00D+00 EMaxC= 1.00D-01 BMatC= 1.15D-09 BMatP= 9.95D-09
 IDIUse=1 WtCom= 1.00D+00 WtEn= 0.00D+00
 Coeff-Com:  0.135D-05 0.458D-04 0.154D-03 0.259D-03-0.113D-03-0.563D-02
 Coeff-Com: -0.101D-01-0.888D-02 0.614D-01 0.281D+00 0.682D+00
 Coeff:      0.135D-05 0.458D-04 0.154D-03 0.259D-03-0.113D-03-0.563D-02
 Coeff:     -0.101D-01-0.888D-02 0.614D-01 0.281D+00 0.682D+00
 Gap=     0.340 Goal=   None    Shift=    0.000
 RMSDP=6.65D-08 MaxDP=5.71D-06 DE=-7.91D-09 OVMax= 1.23D-05

 Cycle  12  Pass 1  IDiag  1:
 RMSU=  4.02D-08    CP:  9.99D-01  6.90D-01  5.67D-01  7.33D-01  6.78D-01
                    CP:  1.07D+00  9.09D-01  1.11D+00  1.01D+00  9.58D-01
                    CP:  9.06D-01
 E= -2871.89330859091     Delta-E=       -0.000000001413 Rises=F Damp=F
 DIIS: error= 3.21D-07 at cycle  12 NSaved=  12.
 NSaved=12 IEnMin=12 EnMin= -2871.89330859091     IErMin=12 ErrMin= 3.21D-07
 ErrMax= 3.21D-07  0.00D+00 EMaxC= 1.00D-01 BMatC= 1.00D-10 BMatP= 1.15D-09
 IDIUse=1 WtCom= 1.00D+00 WtEn= 0.00D+00
 Coeff-Com: -0.398D-06 0.481D-05 0.264D-04 0.724D-04 0.277D-03 0.875D-03
 Coeff-Com: -0.108D-02-0.113D-01-0.195D-01 0.107D-01 0.207D+00 0.813D+00
 Coeff:     -0.398D-06 0.481D-05 0.264D-04 0.724D-04 0.277D-03 0.875D-03
 Coeff:     -0.108D-02-0.113D-01-0.195D-01 0.107D-01 0.207D+00 0.813D+00
 Gap=     0.340 Goal=   None    Shift=    0.000
 RMSDP=2.60D-08 MaxDP=2.00D-06 DE=-1.41D-09 OVMax= 3.56D-06

 Cycle  13  Pass 1  IDiag  1:
 RMSU=  1.28D-08    CP:  9.99D-01  6.90D-01  5.67D-01  7.33D-01  6.78D-01
                    CP:  1.07D+00  9.10D-01  1.11D+00  1.02D+00  9.86D-01
                    CP:  9.96D-01  9.84D-01
 E= -2871.89330859092     Delta-E=       -0.000000000009 Rises=F Damp=F
 DIIS: error= 1.14D-07 at cycle  13 NSaved=  13.
 NSaved=13 IEnMin=13 EnMin= -2871.89330859092     IErMin=13 ErrMin= 1.14D-07
 ErrMax= 1.14D-07  0.00D+00 EMaxC= 1.00D-01 BMatC= 1.12D-11 BMatP= 1.00D-10
 IDIUse=1 WtCom= 1.00D+00 WtEn= 0.00D+00
 Coeff-Com: -0.289D-06-0.238D-05-0.254D-05 0.423D-05 0.129D-03 0.853D-03
 Coeff-Com:  0.526D-03-0.364D-02-0.130D-01-0.238D-01 0.134D-01 0.292D+00
 Coeff-Com:  0.734D+00
 Coeff:     -0.289D-06-0.238D-05-0.254D-05 0.423D-05 0.129D-03 0.853D-03
 Coeff:      0.526D-03-0.364D-02-0.130D-01-0.238D-01 0.134D-01 0.292D+00
 Coeff:      0.734D+00
 Gap=     0.340 Goal=   None    Shift=    0.000
 RMSDP=7.69D-09 MaxDP=8.42D-07 DE=-9.09D-12 OVMax= 1.72D-06

 Error on total polarization charges =  0.00224
 SCF Done:  E(RCAM-B3LYP) =  -2871.89330859     A.U. after   13 cycles
            NFock= 13  Conv=0.77D-08     -V/T= 2.0074
 KE= 2.850890712207D+03 PE=-1.877074461179D+04 EE= 7.055597095132D+03
 Leave Link  502 at Sun Mar  3 18:13:59 2024, MaxMem=  5368709120 cpu:      1242.6
 (Enter /home/k0335/k033513/app/g09/l601.exe)
 Copying SCF densities to generalized density rwf, IOpCl= 0 IROHF=0.

 **********************************************************************

            Population analysis using the SCF density.

 **********************************************************************

 Alpha  occ. eigenvalues --  -24.84193 -24.83828 -24.83826 -24.83748 -24.83723
 Alpha  occ. eigenvalues --  -24.83489 -24.83468 -24.83356 -24.83192 -24.83184
 Alpha  occ. eigenvalues --  -24.83037 -24.83029 -24.82988 -24.82792 -24.82781
 Alpha  occ. eigenvalues --  -24.82744 -24.82699 -24.82388 -19.33318 -19.32414
 Alpha  occ. eigenvalues --  -19.25349 -19.24641 -19.24391 -14.53778 -14.53672
 Alpha  occ. eigenvalues --  -14.51759 -10.59837 -10.59219 -10.55607 -10.55530
 Alpha  occ. eigenvalues --  -10.54044 -10.53686 -10.49579 -10.49378 -10.47465
 Alpha  occ. eigenvalues --  -10.46539 -10.46378 -10.35070 -10.27921 -10.27170
 Alpha  occ. eigenvalues --   -1.43664  -1.42677  -1.42022  -1.41995  -1.39174
 Alpha  occ. eigenvalues --   -1.39087  -1.35592  -1.35155  -1.34156  -1.33645
 Alpha  occ. eigenvalues --   -1.33056  -1.32990  -1.32889  -1.32728  -1.32461
 Alpha  occ. eigenvalues --   -1.32334  -1.31726  -1.31543  -1.24143  -1.20679
 Alpha  occ. eigenvalues --   -1.20211  -1.18865  -1.18619  -1.10772  -1.09079
 Alpha  occ. eigenvalues --   -1.07981  -0.94097  -0.93190  -0.89489  -0.85843
 Alpha  occ. eigenvalues --   -0.84739  -0.82598  -0.82360  -0.80925  -0.80485
 Alpha  occ. eigenvalues --   -0.78961  -0.76875  -0.75702  -0.75466  -0.74024
 Alpha  occ. eigenvalues --   -0.73170  -0.72066  -0.71722  -0.71204  -0.70407
 Alpha  occ. eigenvalues --   -0.70170  -0.69934  -0.69225  -0.68940  -0.68330
 Alpha  occ. eigenvalues --   -0.67750  -0.67738  -0.66923  -0.66366  -0.65388
 Alpha  occ. eigenvalues --   -0.65204  -0.64067  -0.63807  -0.62129  -0.60307
 Alpha  occ. eigenvalues --   -0.59726  -0.59186  -0.57821  -0.57692  -0.57506
 Alpha  occ. eigenvalues --   -0.57400  -0.57115  -0.56844  -0.56631  -0.56471
 Alpha  occ. eigenvalues --   -0.56132  -0.55848  -0.55582  -0.55468  -0.55191
 Alpha  occ. eigenvalues --   -0.54871  -0.54759  -0.54697  -0.54464  -0.53924
 Alpha  occ. eigenvalues --   -0.53796  -0.53471  -0.53283  -0.52930  -0.52232
 Alpha  occ. eigenvalues --   -0.52165  -0.52037  -0.51776  -0.51582  -0.51395
 Alpha  occ. eigenvalues --   -0.51123  -0.51046  -0.50825  -0.50785  -0.50417
 Alpha  occ. eigenvalues --   -0.50220  -0.50110  -0.49765  -0.49459  -0.49223
 Alpha  occ. eigenvalues --   -0.48829  -0.48582  -0.48514  -0.47819  -0.46081
 Alpha  occ. eigenvalues --   -0.44217  -0.44118  -0.41304  -0.40416  -0.39699
 Alpha  occ. eigenvalues --   -0.38925  -0.38140  -0.36744  -0.35299  -0.34570
 Alpha virt. eigenvalues --   -0.00571   0.00069   0.04662   0.05487   0.06562
 Alpha virt. eigenvalues --    0.06919   0.08694   0.09510   0.11103   0.12720
 Alpha virt. eigenvalues --    0.14838   0.15652   0.16812   0.17607   0.17828
 Alpha virt. eigenvalues --    0.18750   0.19536   0.19688   0.20521   0.20880
 Alpha virt. eigenvalues --    0.21517   0.22489   0.22782   0.22821   0.23139
 Alpha virt. eigenvalues --    0.23629   0.24024   0.24272   0.24509   0.25255
 Alpha virt. eigenvalues --    0.25665   0.26275   0.27245   0.27317   0.27727
 Alpha virt. eigenvalues --    0.28523   0.29327   0.30347   0.31478   0.32646
 Alpha virt. eigenvalues --    0.33755   0.36508   0.37853   0.38605   0.39592
 Alpha virt. eigenvalues --    0.40204   0.43124   0.46429   0.46890   0.48176
 Alpha virt. eigenvalues --    0.48781   0.49613   0.49888   0.51308   0.51447
 Alpha virt. eigenvalues --    0.52035   0.52479   0.52993   0.53629   0.53908
 Alpha virt. eigenvalues --    0.54315   0.54515   0.54920   0.55320   0.56430
 Alpha virt. eigenvalues --    0.57239   0.58164   0.58799   0.59129   0.60248
 Alpha virt. eigenvalues --    0.60967   0.61839   0.62374   0.63296   0.63834
 Alpha virt. eigenvalues --    0.65313   0.66006   0.67267   0.68051   0.68587
 Alpha virt. eigenvalues --    0.69896   0.70453   0.72014   0.73599   0.76399
 Alpha virt. eigenvalues --    0.76881   0.78054   0.78611   0.79807   0.81061
 Alpha virt. eigenvalues --    0.82151   0.82653   0.83131   0.84082   0.85414
 Alpha virt. eigenvalues --    0.86990   0.87169   0.88350   0.88543   0.90274
 Alpha virt. eigenvalues --    0.90784   0.91217   0.93204   0.94331   0.94844
 Alpha virt. eigenvalues --    0.95829   0.96129   0.97456   0.99245   1.00455
 Alpha virt. eigenvalues --    1.01850   1.02497   1.02651   1.04730   1.05311
 Alpha virt. eigenvalues --    1.06226   1.06471   1.07281   1.08138   1.09049
 Alpha virt. eigenvalues --    1.10146   1.11632   1.11984   1.12669   1.13016
 Alpha virt. eigenvalues --    1.13624   1.14450   1.14580   1.15259   1.15613
 Alpha virt. eigenvalues --    1.15872   1.16497   1.16835   1.17774   1.18026
 Alpha virt. eigenvalues --    1.18845   1.19224   1.19536   1.20421   1.21840
 Alpha virt. eigenvalues --    1.22005   1.23503   1.23915   1.25181   1.25774
 Alpha virt. eigenvalues --    1.26592   1.27796   1.28368   1.29393   1.29823
 Alpha virt. eigenvalues --    1.30100   1.30446   1.30665   1.32058   1.32989
 Alpha virt. eigenvalues --    1.33081   1.33538   1.34650   1.35241   1.35463
 Alpha virt. eigenvalues --    1.35815   1.36169   1.37002   1.38147   1.38687
 Alpha virt. eigenvalues --    1.38739   1.39114   1.39865   1.40686   1.40876
 Alpha virt. eigenvalues --    1.41122   1.41290   1.41614   1.42302   1.43176
 Alpha virt. eigenvalues --    1.43259   1.43701   1.44641   1.46045   1.46266
 Alpha virt. eigenvalues --    1.47381   1.47799   1.48411   1.48693   1.49185
 Alpha virt. eigenvalues --    1.50074   1.50338   1.51764   1.52285   1.52720
 Alpha virt. eigenvalues --    1.53741   1.54356   1.55075   1.55416   1.55677
 Alpha virt. eigenvalues --    1.56258   1.57089   1.57696   1.58227   1.58325
 Alpha virt. eigenvalues --    1.59685   1.60097   1.61499   1.62188   1.64301
 Alpha virt. eigenvalues --    1.64496   1.65093   1.65873   1.66322   1.66736
 Alpha virt. eigenvalues --    1.67346   1.68156   1.68881   1.69752   1.70361
 Alpha virt. eigenvalues --    1.70709   1.72087   1.72182   1.72861   1.73704
 Alpha virt. eigenvalues --    1.73826   1.75244   1.75800   1.76245   1.77225
 Alpha virt. eigenvalues --    1.78018   1.78941   1.79135   1.80108   1.80583
 Alpha virt. eigenvalues --    1.81172   1.81566   1.82182   1.82614   1.83703
 Alpha virt. eigenvalues --    1.84371   1.84882   1.85081   1.85438   1.85759
 Alpha virt. eigenvalues --    1.85920   1.86558   1.87362   1.87700   1.87864
 Alpha virt. eigenvalues --    1.87968   1.88533   1.88973   1.89580   1.89949
 Alpha virt. eigenvalues --    1.90589   1.91122   1.91252   1.91927   1.92037
 Alpha virt. eigenvalues --    1.92714   1.93456   1.93810   1.94185   1.94883
 Alpha virt. eigenvalues --    1.95225   1.95689   1.96091   1.96623   1.97541
 Alpha virt. eigenvalues --    1.98329   1.98881   1.99325   1.99456   1.99865
 Alpha virt. eigenvalues --    2.00848   2.00932   2.01268   2.01540   2.02248
 Alpha virt. eigenvalues --    2.02616   2.03130   2.03308   2.03414   2.03987
 Alpha virt. eigenvalues --    2.04414   2.04606   2.05146   2.05915   2.06185
 Alpha virt. eigenvalues --    2.06291   2.06994   2.07485   2.07847   2.08283
 Alpha virt. eigenvalues --    2.08904   2.09221   2.09488   2.09932   2.10593
 Alpha virt. eigenvalues --    2.10986   2.11671   2.11836   2.12021   2.12245
 Alpha virt. eigenvalues --    2.13255   2.13914   2.14647   2.15031   2.16062
 Alpha virt. eigenvalues --    2.16540   2.17530   2.18921   2.19008   2.19849
 Alpha virt. eigenvalues --    2.20329   2.21495   2.21949   2.22922   2.23210
 Alpha virt. eigenvalues --    2.25344   2.26702   2.27414   2.28922   2.29437
 Alpha virt. eigenvalues --    2.30572   2.31090   2.31385   2.32414   2.32652
 Alpha virt. eigenvalues --    2.34121   2.34795   2.36653   2.37485   2.38609
 Alpha virt. eigenvalues --    2.39738   2.40804   2.41907   2.42685   2.44741
 Alpha virt. eigenvalues --    2.44851   2.45666   2.46253   2.47749   2.48247
 Alpha virt. eigenvalues --    2.49300   2.50287   2.51647   2.53252   2.53599
 Alpha virt. eigenvalues --    2.55388   2.55685   2.57218   2.58011   2.59112
 Alpha virt. eigenvalues --    2.60676   2.61419   2.62575   2.62830   2.64027
 Alpha virt. eigenvalues --    2.65303   2.66571   2.67094   2.67849   2.68637
 Alpha virt. eigenvalues --    2.70681   2.72230   2.73757   2.75824   2.75963
 Alpha virt. eigenvalues --    2.77097   2.78974   2.80285   2.81737   2.84056
 Alpha virt. eigenvalues --    2.84384   2.85339   2.86775   2.87606   2.88318
 Alpha virt. eigenvalues --    2.88500   2.89137   2.90162   2.91464   2.92446
 Alpha virt. eigenvalues --    2.93022   2.93995   2.95687   2.96787   2.97593
 Alpha virt. eigenvalues --    2.98174   3.00144   3.01623   3.03870   3.05049
 Alpha virt. eigenvalues --    3.05712   3.06003   3.06778   3.07824   3.08265
 Alpha virt. eigenvalues --    3.09080   3.09483   3.11720   3.12007   3.13002
 Alpha virt. eigenvalues --    3.14458   3.15608   3.16164   3.17420   3.19217
 Alpha virt. eigenvalues --    3.20736   3.20997   3.24618   3.24983   3.26450
 Alpha virt. eigenvalues --    3.27116   3.29736   3.31835   3.34774   3.36525
 Alpha virt. eigenvalues --    3.37977   3.45768   3.51865   3.52950   3.78535
 Alpha virt. eigenvalues --    4.00416   4.09791   4.15044   4.17351   4.18283
 Alpha virt. eigenvalues --    4.27311   4.27960   4.33024   4.35184   4.35686
 Alpha virt. eigenvalues --    4.39044   4.42409   4.43540   4.45958   4.48246
 Alpha virt. eigenvalues --    4.55986   4.58902   4.62740   4.66786   4.67477
 Alpha virt. eigenvalues --    4.73619   4.78493   4.85415   4.87055   4.90094
 Alpha virt. eigenvalues --    4.96697   5.01522   5.02317   5.13409   5.14053
 Alpha virt. eigenvalues --    5.32620   5.46375   5.54556   5.70387   5.76621
 Alpha virt. eigenvalues --    6.06257   6.18596   6.43887   6.52764   6.72963
          Condensed to atoms (all electrons):
               1          2          3          4          5          6
     1  C    5.316150   0.893475  -0.144839  -0.002045   0.000115  -0.000531
     2  C    0.893475   4.631175   0.324918  -0.071202   0.000815  -0.001251
     3  C   -0.144839   0.324918   5.012218   0.255208  -0.022184  -0.000136
     4  N   -0.002045  -0.071202   0.255208   7.376794   0.226059  -0.087876
     5  C    0.000115   0.000815  -0.022184   0.226059   4.210454   0.556417
     6  O   -0.000531  -0.001251  -0.000136  -0.087876   0.556417   8.130734
     7  N   -0.000014  -0.000448   0.002730  -0.099580   0.199315  -0.089646
     8  C    0.000001   0.000003  -0.000060   0.001049  -0.012686   0.008374
     9  F    0.000000   0.000000   0.000000  -0.000027   0.001836   0.000032
    10  F    0.000000   0.000000   0.000000  -0.000029   0.003647  -0.000517
    11  C    0.000000   0.000000   0.000001   0.000082  -0.006329   0.007182
    12  F    0.000000   0.000000   0.000000   0.000000   0.000062   0.000017
    13  O    0.000000  -0.000001   0.000002  -0.000002   0.003016  -0.019742
    14  C    0.000000   0.000000   0.000000   0.000003   0.000442   0.002101
    15  F    0.000000   0.000000   0.000000   0.000000   0.000004  -0.000009
    16  F    0.000000   0.000000   0.000003   0.000002   0.006642  -0.003856
    17  F    0.000000   0.000000   0.000000   0.000000   0.000012  -0.000092
    18  C    0.000003   0.000007   0.000000  -0.000121   0.000163  -0.002564
    19  F    0.000000   0.000000   0.000000   0.000000   0.000011   0.000003
    20  F    0.000026   0.000057  -0.000047  -0.000779   0.013079  -0.004282
    21  F    0.000000   0.000000   0.000000   0.000000  -0.000002  -0.000012
    22  C    0.000006   0.000158   0.000212   0.003931  -0.013287   0.000342
    23  O    0.000000   0.000000   0.000002   0.000169  -0.000033  -0.000024
    24  N   -0.000017  -0.000469   0.003080  -0.095762  -0.003588   0.000103
    25  C    0.000000   0.000003  -0.000042   0.001118   0.000370   0.000002
    26  F    0.000000  -0.000001   0.000005   0.000051   0.000003   0.000000
    27  F    0.000000   0.000000   0.000000  -0.000033   0.000007   0.000000
    28  C    0.000000   0.000000   0.000002  -0.000114   0.000044   0.000000
    29  F    0.000000   0.000000   0.000000  -0.000010   0.000012   0.000000
    30  O    0.000000   0.000000   0.000000   0.000000   0.000000   0.000000
    31  C    0.000000   0.000000   0.000000   0.000000   0.000000   0.000000
    32  F    0.000000   0.000000   0.000000   0.000000   0.000000   0.000000
    33  F    0.000000   0.000000   0.000000   0.000000   0.000000   0.000000
    34  F    0.000000   0.000000   0.000000   0.000000   0.000000   0.000000
    35  C    0.000000   0.000000  -0.000001  -0.000020  -0.000004   0.000000
    36  F    0.000000   0.000000   0.000000  -0.000002   0.000000   0.000000
    37  F    0.000000   0.000000   0.000000   0.000000   0.000000   0.000000
    38  F    0.000000   0.000002   0.000017  -0.000610   0.000017   0.000000
    39  C    0.000151   0.000124  -0.022428   0.229059  -0.017639   0.000320
    40  O   -0.000460  -0.001459  -0.000308  -0.086007   0.000206  -0.000025
    41  H    0.350758   0.016878   0.002334  -0.000037  -0.000004  -0.000002
    42  H   -0.000025  -0.033273   0.383783  -0.033643  -0.004590   0.009930
    43  H   -0.000016  -0.032991   0.383224  -0.033379   0.004209   0.000472
               7          8          9         10         11         12
     1  C   -0.000014   0.000001   0.000000   0.000000   0.000000   0.000000
     2  C   -0.000448   0.000003   0.000000   0.000000   0.000000   0.000000
     3  C    0.002730  -0.000060   0.000000   0.000000   0.000001   0.000000
     4  N   -0.099580   0.001049  -0.000027  -0.000029   0.000082   0.000000
     5  C    0.199315  -0.012686   0.001836   0.003647  -0.006329   0.000062
     6  O   -0.089646   0.008374   0.000032  -0.000517   0.007182   0.000017
     7  N    7.640497   0.108766  -0.036851  -0.066990  -0.038075   0.001212
     8  C    0.108766   4.461598   0.243600   0.276605   0.199111  -0.011345
     9  F   -0.036851   0.243600   9.125728  -0.037709  -0.022939  -0.001176
    10  F   -0.066990   0.276605  -0.037709   9.106837  -0.025551  -0.000585
    11  C   -0.038075   0.199111  -0.022939  -0.025551   4.990485   0.200932
    12  F    0.001212  -0.011345  -0.001176  -0.000585   0.200932   9.148523
    13  O    0.000775  -0.036689   0.000598  -0.001399   0.164084  -0.052272
    14  C    0.000104  -0.006955   0.000077   0.011892  -0.000020   0.000649
    15  F    0.000030  -0.003745  -0.000003  -0.000704   0.011880  -0.004546
    16  F   -0.002089   0.014463   0.000000  -0.009163  -0.007826  -0.000049
    17  F    0.000000  -0.000006   0.000000  -0.000003   0.000640  -0.000029
    18  C    0.001969  -0.045477   0.003238   0.001380   0.215886  -0.006225
    19  F   -0.001394   0.004481  -0.001667  -0.000001  -0.036168  -0.000605
    20  F   -0.000135   0.001777  -0.000170   0.000001  -0.042267   0.000302
    21  F   -0.000001   0.001944   0.000000  -0.000001  -0.028034  -0.000777
    22  C    0.187098  -0.001353   0.005819   0.005915   0.002451  -0.000012
    23  O   -0.086241   0.015698  -0.010990  -0.002979   0.000228   0.000000
    24  N   -0.090211   0.002048  -0.000078   0.000026  -0.000065   0.000000
    25  C    0.001855  -0.000033   0.000011   0.000003   0.000000   0.000000
    26  F   -0.000023   0.000000   0.000000   0.000000   0.000000   0.000000
    27  F   -0.000043   0.000016  -0.000001   0.000000   0.000000   0.000000
    28  C   -0.000119   0.000003   0.000000   0.000000   0.000000   0.000000
    29  F   -0.000040   0.000010   0.000000   0.000000   0.000000   0.000000
    30  O    0.000000   0.000000   0.000000   0.000000   0.000000   0.000000
    31  C    0.000000   0.000000   0.000000   0.000000   0.000000   0.000000
    32  F    0.000000   0.000000   0.000000   0.000000   0.000000   0.000000
    33  F    0.000000   0.000000   0.000000   0.000000   0.000000   0.000000
    34  F    0.000000   0.000000   0.000000   0.000000   0.000000   0.000000
    35  C    0.000015   0.000000   0.000000   0.000000   0.000000   0.000000
    36  F    0.000000   0.000000   0.000000   0.000000   0.000000   0.000000
    37  F    0.000000   0.000000   0.000000   0.000000   0.000000   0.000000
    38  F   -0.000003   0.000000   0.000000   0.000000   0.000000   0.000000
    39  C   -0.000411   0.000551   0.000003   0.000014  -0.000017   0.000000
    40  O    0.000098   0.000002   0.000000   0.000000   0.000000   0.000000
    41  H    0.000000   0.000000   0.000000   0.000000   0.000000   0.000000
    42  H    0.000450   0.000009   0.000000   0.000000  -0.000004   0.000000
    43  H   -0.000051   0.000002   0.000000   0.000000   0.000000   0.000000
              13         14         15         16         17         18
     1  C    0.000000   0.000000   0.000000   0.000000   0.000000   0.000003
     2  C   -0.000001   0.000000   0.000000   0.000000   0.000000   0.000007
     3  C    0.000002   0.000000   0.000000   0.000003   0.000000   0.000000
     4  N   -0.000002   0.000003   0.000000   0.000002   0.000000  -0.000121
     5  C    0.003016   0.000442   0.000004   0.006642   0.000012   0.000163
     6  O   -0.019742   0.002101  -0.000009  -0.003856  -0.000092  -0.002564
     7  N    0.000775   0.000104   0.000030  -0.002089   0.000000   0.001969
     8  C   -0.036689  -0.006955  -0.003745   0.014463  -0.000006  -0.045477
     9  F    0.000598   0.000077  -0.000003   0.000000   0.000000   0.003238
    10  F   -0.001399   0.011892  -0.000704  -0.009163  -0.000003   0.001380
    11  C    0.164084  -0.000020   0.011880  -0.007826   0.000640   0.215886
    12  F   -0.052272   0.000649  -0.004546  -0.000049  -0.000029  -0.006225
    13  O    8.333367   0.237939  -0.044495  -0.045249  -0.038811  -0.012459
    14  C    0.237939   3.822521   0.296570   0.296188   0.337390   0.001160
    15  F   -0.044495   0.296570   9.062006  -0.034719  -0.036708   0.000201
    16  F   -0.045249   0.296188  -0.034719   9.069455  -0.037609  -0.000070
    17  F   -0.038811   0.337390  -0.036708  -0.037609   9.016807  -0.000038
    18  C   -0.012459   0.001160   0.000201  -0.000070  -0.000038   4.153818
    19  F    0.000555   0.000002   0.000000   0.000000   0.000000   0.294281
    20  F    0.000229  -0.000040   0.000000   0.000000   0.000000   0.282491
    21  F   -0.000489  -0.000023   0.000000   0.000000   0.000000   0.304670
    22  C   -0.000056  -0.000025   0.000000  -0.000073   0.000000  -0.000026
    23  O    0.000000   0.000003   0.000000   0.000000   0.000000  -0.000014
    24  N    0.000000   0.000000   0.000000   0.000000   0.000000  -0.000004
    25  C    0.000000   0.000000   0.000000   0.000000   0.000000   0.000000
    26  F    0.000000   0.000000   0.000000   0.000000   0.000000   0.000000
    27  F    0.000000   0.000000   0.000000   0.000000   0.000000   0.000000
    28  C    0.000000   0.000000   0.000000   0.000000   0.000000   0.000000
    29  F    0.000000   0.000000   0.000000   0.000000   0.000000   0.000000
    30  O    0.000000   0.000000   0.000000   0.000000   0.000000   0.000000
    31  C    0.000000   0.000000   0.000000   0.000000   0.000000   0.000000
    32  F    0.000000   0.000000   0.000000   0.000000   0.000000   0.000000
    33  F    0.000000   0.000000   0.000000   0.000000   0.000000   0.000000
    34  F    0.000000   0.000000   0.000000   0.000000   0.000000   0.000000
    35  C    0.000000   0.000000   0.000000   0.000000   0.000000   0.000000
    36  F    0.000000   0.000000   0.000000   0.000000   0.000000   0.000000
    37  F    0.000000   0.000000   0.000000   0.000000   0.000000   0.000000
    38  F    0.000000   0.000000   0.000000   0.000000   0.000000   0.000000
    39  C    0.000001   0.000000   0.000000   0.000002   0.000000   0.000010
    40  O    0.000000   0.000000   0.000000   0.000000   0.000000   0.000000
    41  H    0.000000   0.000000   0.000000   0.000000   0.000000   0.000000
    42  H    0.000003   0.000003   0.000000  -0.000005   0.000000   0.000000
    43  H    0.000000   0.000000   0.000000   0.000000   0.000000   0.000000
              19         20         21         22         23         24
     1  C    0.000000   0.000026   0.000000   0.000006   0.000000  -0.000017
     2  C    0.000000   0.000057   0.000000   0.000158   0.000000  -0.000469
     3  C    0.000000  -0.000047   0.000000   0.000212   0.000002   0.003080
     4  N    0.000000  -0.000779   0.000000   0.003931   0.000169  -0.095762
     5  C    0.000011   0.013079  -0.000002  -0.013287  -0.000033  -0.003588
     6  O    0.000003  -0.004282  -0.000012   0.000342  -0.000024   0.000103
     7  N   -0.001394  -0.000135  -0.000001   0.187098  -0.086241  -0.090211
     8  C    0.004481   0.001777   0.001944  -0.001353   0.015698   0.002048
     9  F   -0.001667  -0.000170   0.000000   0.005819  -0.010990  -0.000078
    10  F   -0.000001   0.000001  -0.000001   0.005915  -0.002979   0.000026
    11  C   -0.036168  -0.042267  -0.028034   0.002451   0.000228  -0.000065
    12  F   -0.000605   0.000302  -0.000777  -0.000012   0.000000   0.000000
    13  O    0.000555   0.000229  -0.000489  -0.000056   0.000000   0.000000
    14  C    0.000002  -0.000040  -0.000023  -0.000025   0.000003   0.000000
    15  F    0.000000   0.000000   0.000000   0.000000   0.000000   0.000000
    16  F    0.000000   0.000000   0.000000  -0.000073   0.000000   0.000000
    17  F    0.000000   0.000000   0.000000   0.000000   0.000000   0.000000
    18  C    0.294281   0.282491   0.304670  -0.000026  -0.000014  -0.000004
    19  F    9.064101  -0.040592  -0.039992  -0.000023   0.000000   0.000000
    20  F   -0.040592   9.069841  -0.039802   0.000465   0.000000  -0.000011
    21  F   -0.039992  -0.039802   9.050825   0.000000   0.000000   0.000000
    22  C   -0.000023   0.000465   0.000000   4.188025   0.558251   0.219977
    23  O    0.000000   0.000000   0.000000   0.558251   8.079341  -0.085719
    24  N    0.000000  -0.000011   0.000000   0.219977  -0.085719   7.550175
    25  C    0.000000   0.000000   0.000000  -0.013653   0.011480   0.181053
    26  F    0.000000   0.000000   0.000000   0.000930   0.000009  -0.035773
    27  F    0.000000   0.000000   0.000000   0.010045  -0.009362  -0.043278
    28  C    0.000000   0.000000   0.000000  -0.001353   0.001717  -0.067657
    29  F    0.000000   0.000000   0.000000   0.010849  -0.006104  -0.001176
    30  O    0.000000   0.000000   0.000000   0.000146  -0.000192   0.001883
    31  C    0.000000   0.000000   0.000000   0.000000   0.000006   0.000252
    32  F    0.000000   0.000000   0.000000   0.000000   0.000000   0.000000
    33  F    0.000000   0.000000   0.000000   0.000000   0.000000  -0.000001
    34  F    0.000000   0.000000   0.000000   0.000005   0.000000   0.000066
    35  C    0.000000   0.000000   0.000000   0.000197   0.000134  -0.001329
    36  F    0.000000   0.000000   0.000000   0.000002   0.000000  -0.000187
    37  F    0.000000   0.000000   0.000000   0.000000   0.000000  -0.000011
    38  F    0.000000   0.000000   0.000000  -0.000080   0.000001  -0.001283
    39  C    0.000000   0.000038   0.000000  -0.014786   0.000390   0.194583
    40  O    0.000000   0.000000   0.000000   0.000113  -0.000030  -0.090332
    41  H    0.000000   0.000000   0.000000   0.000000   0.000000   0.000000
    42  H    0.000000   0.000004   0.000000  -0.000061   0.000000  -0.000040
    43  H    0.000000   0.000000   0.000000  -0.000058   0.000000   0.000531
              25         26         27         28         29         30
     1  C    0.000000   0.000000   0.000000   0.000000   0.000000   0.000000
     2  C    0.000003  -0.000001   0.000000   0.000000   0.000000   0.000000
     3  C   -0.000042   0.000005   0.000000   0.000002   0.000000   0.000000
     4  N    0.001118   0.000051  -0.000033  -0.000114  -0.000010   0.000000
     5  C    0.000370   0.000003   0.000007   0.000044   0.000012   0.000000
     6  O    0.000002   0.000000   0.000000   0.000000   0.000000   0.000000
     7  N    0.001855  -0.000023  -0.000043  -0.000119  -0.000040   0.000000
     8  C   -0.000033   0.000000   0.000016   0.000003   0.000010   0.000000
     9  F    0.000011   0.000000  -0.000001   0.000000   0.000000   0.000000
    10  F    0.000003   0.000000   0.000000   0.000000   0.000000   0.000000
    11  C    0.000000   0.000000   0.000000   0.000000   0.000000   0.000000
    12  F    0.000000   0.000000   0.000000   0.000000   0.000000   0.000000
    13  O    0.000000   0.000000   0.000000   0.000000   0.000000   0.000000
    14  C    0.000000   0.000000   0.000000   0.000000   0.000000   0.000000
    15  F    0.000000   0.000000   0.000000   0.000000   0.000000   0.000000
    16  F    0.000000   0.000000   0.000000   0.000000   0.000000   0.000000
    17  F    0.000000   0.000000   0.000000   0.000000   0.000000   0.000000
    18  C    0.000000   0.000000   0.000000   0.000000   0.000000   0.000000
    19  F    0.000000   0.000000   0.000000   0.000000   0.000000   0.000000
    20  F    0.000000   0.000000   0.000000   0.000000   0.000000   0.000000
    21  F    0.000000   0.000000   0.000000   0.000000   0.000000   0.000000
    22  C   -0.013653   0.000930   0.010045  -0.001353   0.010849   0.000146
    23  O    0.011480   0.000009  -0.009362   0.001717  -0.006104  -0.000192
    24  N    0.181053  -0.035773  -0.043278  -0.067657  -0.001176   0.001883
    25  C    4.431430   0.261125   0.258881   0.188126  -0.028119  -0.034279
    26  F    0.261125   9.101479  -0.041662  -0.036084   0.000309   0.000158
    27  F    0.258881  -0.041662   9.121606  -0.024155  -0.000052  -0.002641
    28  C    0.188126  -0.036084  -0.024155   4.986159   0.252724   0.172524
    29  F   -0.028119   0.000309  -0.000052   0.252724   9.100149  -0.042698
    30  O   -0.034279   0.000158  -0.002641   0.172524  -0.042698   8.326700
    31  C   -0.005594   0.002618   0.003273  -0.002032   0.000244   0.237709
    32  F   -0.000138   0.000000  -0.000014   0.001315  -0.000002  -0.038234
    33  F   -0.000477  -0.000015   0.000001  -0.007107  -0.000002  -0.047401
    34  F    0.014068  -0.007767  -0.001312   0.002522  -0.000001  -0.047159
    35  C   -0.043871   0.009840   0.001791   0.182020  -0.013981  -0.030716
    36  F    0.002690  -0.001627  -0.000002  -0.034955   0.000311  -0.000912
    37  F    0.001802   0.000000  -0.000001  -0.019249  -0.000822  -0.000522
    38  F    0.000425  -0.000333   0.000000  -0.024849  -0.001170   0.000593
    39  C   -0.007538   0.005078   0.000421  -0.000328  -0.000187   0.000028
    40  O    0.014496  -0.012696   0.000021  -0.004783   0.000021   0.000000
    41  H    0.000000   0.000000   0.000000   0.000000   0.000000   0.000000
    42  H    0.000002   0.000000   0.000000   0.000000   0.000000   0.000000
    43  H    0.000010   0.000002   0.000000  -0.000001   0.000000   0.000000
              31         32         33         34         35         36
     1  C    0.000000   0.000000   0.000000   0.000000   0.000000   0.000000
     2  C    0.000000   0.000000   0.000000   0.000000   0.000000   0.000000
     3  C    0.000000   0.000000   0.000000   0.000000  -0.000001   0.000000
     4  N    0.000000   0.000000   0.000000   0.000000  -0.000020  -0.000002
     5  C    0.000000   0.000000   0.000000   0.000000  -0.000004   0.000000
     6  O    0.000000   0.000000   0.000000   0.000000   0.000000   0.000000
     7  N    0.000000   0.000000   0.000000   0.000000   0.000015   0.000000
     8  C    0.000000   0.000000   0.000000   0.000000   0.000000   0.000000
     9  F    0.000000   0.000000   0.000000   0.000000   0.000000   0.000000
    10  F    0.000000   0.000000   0.000000   0.000000   0.000000   0.000000
    11  C    0.000000   0.000000   0.000000   0.000000   0.000000   0.000000
    12  F    0.000000   0.000000   0.000000   0.000000   0.000000   0.000000
    13  O    0.000000   0.000000   0.000000   0.000000   0.000000   0.000000
    14  C    0.000000   0.000000   0.000000   0.000000   0.000000   0.000000
    15  F    0.000000   0.000000   0.000000   0.000000   0.000000   0.000000
    16  F    0.000000   0.000000   0.000000   0.000000   0.000000   0.000000
    17  F    0.000000   0.000000   0.000000   0.000000   0.000000   0.000000
    18  C    0.000000   0.000000   0.000000   0.000000   0.000000   0.000000
    19  F    0.000000   0.000000   0.000000   0.000000   0.000000   0.000000
    20  F    0.000000   0.000000   0.000000   0.000000   0.000000   0.000000
    21  F    0.000000   0.000000   0.000000   0.000000   0.000000   0.000000
    22  C    0.000000   0.000000   0.000000   0.000005   0.000197   0.000002
    23  O    0.000006   0.000000   0.000000   0.000000   0.000134   0.000000
    24  N    0.000252   0.000000  -0.000001   0.000066  -0.001329  -0.000187
    25  C   -0.005594  -0.000138  -0.000477   0.014068  -0.043871   0.002690
    26  F    0.002618   0.000000  -0.000015  -0.007767   0.009840  -0.001627
    27  F    0.003273  -0.000014   0.000001  -0.001312   0.001791  -0.000002
    28  C   -0.002032   0.001315  -0.007107   0.002522   0.182020  -0.034955
    29  F    0.000244  -0.000002  -0.000002  -0.000001  -0.013981   0.000311
    30  O    0.237709  -0.038234  -0.047401  -0.047159  -0.030716  -0.000912
    31  C    3.841847   0.336117   0.301595   0.299285  -0.005102   0.011359
    32  F    0.336117   9.012052  -0.037744  -0.037026  -0.000088   0.000000
    33  F    0.301595  -0.037744   9.055061  -0.035070   0.017835  -0.005272
    34  F    0.299285  -0.037026  -0.035070   9.051309  -0.003912  -0.000131
    35  C   -0.005102  -0.000088   0.017835  -0.003912   4.254837   0.257280
    36  F    0.011359   0.000000  -0.005272  -0.000131   0.257280   9.086636
    37  F    0.000233  -0.000001  -0.001426   0.000010   0.272064  -0.036989
    38  F    0.000089   0.000000   0.000000   0.000000   0.275996  -0.034732
    39  C    0.000004   0.000000   0.000000   0.000009   0.000936  -0.000406
    40  O    0.000002   0.000000   0.000000   0.000000   0.007346   0.000041
    41  H    0.000000   0.000000   0.000000   0.000000   0.000000   0.000000
    42  H    0.000000   0.000000   0.000000   0.000000   0.000000   0.000000
    43  H    0.000000   0.000000   0.000000   0.000000   0.000006   0.000000
              37         38         39         40         41         42
     1  C    0.000000   0.000000   0.000151  -0.000460   0.350758  -0.000025
     2  C    0.000000   0.000002   0.000124  -0.001459   0.016878  -0.033273
     3  C    0.000000   0.000017  -0.022428  -0.000308   0.002334   0.383783
     4  N    0.000000  -0.000610   0.229059  -0.086007  -0.000037  -0.033643
     5  C    0.000000   0.000017  -0.017639   0.000206  -0.000004  -0.004590
     6  O    0.000000   0.000000   0.000320  -0.000025  -0.000002   0.009930
     7  N    0.000000  -0.000003  -0.000411   0.000098   0.000000   0.000450
     8  C    0.000000   0.000000   0.000551   0.000002   0.000000   0.000009
     9  F    0.000000   0.000000   0.000003   0.000000   0.000000   0.000000
    10  F    0.000000   0.000000   0.000014   0.000000   0.000000   0.000000
    11  C    0.000000   0.000000  -0.000017   0.000000   0.000000  -0.000004
    12  F    0.000000   0.000000   0.000000   0.000000   0.000000   0.000000
    13  O    0.000000   0.000000   0.000001   0.000000   0.000000   0.000003
    14  C    0.000000   0.000000   0.000000   0.000000   0.000000   0.000003
    15  F    0.000000   0.000000   0.000000   0.000000   0.000000   0.000000
    16  F    0.000000   0.000000   0.000002   0.000000   0.000000  -0.000005
    17  F    0.000000   0.000000   0.000000   0.000000   0.000000   0.000000
    18  C    0.000000   0.000000   0.000010   0.000000   0.000000   0.000000
    19  F    0.000000   0.000000   0.000000   0.000000   0.000000   0.000000
    20  F    0.000000   0.000000   0.000038   0.000000   0.000000   0.000004
    21  F    0.000000   0.000000   0.000000   0.000000   0.000000   0.000000
    22  C    0.000000  -0.000080  -0.014786   0.000113   0.000000  -0.000061
    23  O    0.000000   0.000001   0.000390  -0.000030   0.000000   0.000000
    24  N   -0.000011  -0.001283   0.194583  -0.090332   0.000000  -0.000040
    25  C    0.001802   0.000425  -0.007538   0.014496   0.000000   0.000002
    26  F    0.000000  -0.000333   0.005078  -0.012696   0.000000   0.000000
    27  F   -0.000001   0.000000   0.000421   0.000021   0.000000   0.000000
    28  C   -0.019249  -0.024849  -0.000328  -0.004783   0.000000   0.000000
    29  F   -0.000822  -0.001170  -0.000187   0.000021   0.000000   0.000000
    30  O   -0.000522   0.000593   0.000028   0.000000   0.000000   0.000000
    31  C    0.000233   0.000089   0.000004   0.000002   0.000000   0.000000
    32  F   -0.000001   0.000000   0.000000   0.000000   0.000000   0.000000
    33  F   -0.001426   0.000000   0.000000   0.000000   0.000000   0.000000
    34  F    0.000010   0.000000   0.000009   0.000000   0.000000   0.000000
    35  C    0.272064   0.275996   0.000936   0.007346   0.000000   0.000000
    36  F   -0.036989  -0.034732  -0.000406   0.000041   0.000000   0.000000
    37  F    9.082535  -0.039018   0.000006  -0.000001   0.000000   0.000000
    38  F   -0.039018   9.063864   0.015565  -0.009742   0.000000   0.000000
    39  C    0.000006   0.015565   4.203420   0.569109  -0.000004   0.004424
    40  O   -0.000001  -0.009742   0.569109   8.099141  -0.000001   0.000495
    41  H    0.000000   0.000000  -0.000004  -0.000001   0.435425  -0.000017
    42  H    0.000000   0.000000   0.004424   0.000495  -0.000017   0.498202
    43  H    0.000000   0.000024  -0.004091   0.011014  -0.000017  -0.023975
              43
     1  C   -0.000016
     2  C   -0.032991
     3  C    0.383224
     4  N   -0.033379
     5  C    0.004209
     6  O    0.000472
     7  N   -0.000051
     8  C    0.000002
     9  F    0.000000
    10  F    0.000000
    11  C    0.000000
    12  F    0.000000
    13  O    0.000000
    14  C    0.000000
    15  F    0.000000
    16  F    0.000000
    17  F    0.000000
    18  C    0.000000
    19  F    0.000000
    20  F    0.000000
    21  F    0.000000
    22  C   -0.000058
    23  O    0.000000
    24  N    0.000531
    25  C    0.000010
    26  F    0.000002
    27  F    0.000000
    28  C   -0.000001
    29  F    0.000000
    30  O    0.000000
    31  C    0.000000
    32  F    0.000000
    33  F    0.000000
    34  F    0.000000
    35  C    0.000006
    36  F    0.000000
    37  F    0.000000
    38  F    0.000024
    39  C   -0.004091
    40  O    0.011014
    41  H   -0.000017
    42  H   -0.023975
    43  H    0.496731
 Mulliken charges:
               1
     1  C   -0.412739
     2  C    0.273479
     3  C   -0.177695
     4  N   -0.582244
     5  C    0.853389
     6  O   -0.505465
     7  N   -0.632551
     8  C    0.778240
     9  F   -0.269332
    10  F   -0.260688
    11  C    0.414336
    12  F   -0.274076
    13  O   -0.488906
    14  C    1.000019
    15  F   -0.245762
    16  F   -0.246045
    17  F   -0.241554
    18  C    0.807719
    19  F   -0.242993
    20  F   -0.240186
    21  F   -0.248306
    22  C    0.849909
    23  O   -0.465739
    24  N   -0.636784
    25  C    0.764796
    26  F   -0.245624
    27  F   -0.273506
    28  C    0.435632
    29  F   -0.270264
    30  O   -0.494987
    31  C    0.978095
    32  F   -0.236236
    33  F   -0.239977
    34  F   -0.234897
    35  C    0.818726
    36  F   -0.243102
    37  F   -0.258611
    38  F   -0.244774
    39  C    0.843590
    40  O   -0.496261
    41  H    0.194687
    42  H    0.198328
    43  H    0.198356
 Sum of Mulliken charges =   0.00000
 Mulliken charges with hydrogens summed into heavy atoms:
               1
     1  C   -0.218052
     2  C    0.273479
     3  C    0.218989
     4  N   -0.582244
     5  C    0.853389
     6  O   -0.505465
     7  N   -0.632551
     8  C    0.778240
     9  F   -0.269332
    10  F   -0.260688
    11  C    0.414336
    12  F   -0.274076
    13  O   -0.488906
    14  C    1.000019
    15  F   -0.245762
    16  F   -0.246045
    17  F   -0.241554
    18  C    0.807719
    19  F   -0.242993
    20  F   -0.240186
    21  F   -0.248306
    22  C    0.849909
    23  O   -0.465739
    24  N   -0.636784
    25  C    0.764796
    26  F   -0.245624
    27  F   -0.273506
    28  C    0.435632
    29  F   -0.270264
    30  O   -0.494987
    31  C    0.978095
    32  F   -0.236236
    33  F   -0.239977
    34  F   -0.234897
    35  C    0.818726
    36  F   -0.243102
    37  F   -0.258611
    38  F   -0.244774
    39  C    0.843590
    40  O   -0.496261
 Electronic spatial extent (au):  <R**2>=          19586.3448
 Charge=              0.0000 electrons
 Dipole moment (field-independent basis, Debye):
    X=              0.2646    Y=              2.4422    Z=             -1.5621  Tot=              2.9112
 Quadrupole moment (field-independent basis, Debye-Ang):
   XX=           -223.7666   YY=           -211.9090   ZZ=           -206.7799
   XY=             -1.4506   XZ=              2.6143   YZ=              2.6309
 Traceless Quadrupole moment (field-independent basis, Debye-Ang):
   XX=             -9.6148   YY=              2.2428   ZZ=              7.3720
   XY=             -1.4506   XZ=              2.6143   YZ=              2.6309
 Octapole moment (field-independent basis, Debye-Ang**2):
  XXX=             19.6948  YYY=            171.0539  ZZZ=           -139.5873  XYY=              0.3382
  XXY=             17.2874  XXZ=            -17.6896  XZZ=            -18.2975  YZZ=             71.1403
  YYZ=            -40.9163  XYZ=              8.1626
 Hexadecapole moment (field-independent basis, Debye-Ang**3):
 XXXX=         -14578.4326 YYYY=          -3378.1573 ZZZZ=          -2502.7780 XXXY=            612.8986
 XXXZ=           -610.3737 YYYX=            660.1086 YYYZ=            481.9043 ZZZX=           -534.7525
 ZZZY=            313.0893 XXYY=          -3029.4723 XXZZ=          -2926.6042 YYZZ=           -995.9322
 XXYZ=            176.9889 YYXZ=           -182.2832 ZZXY=            176.0334
 N-N= 5.992363495859D+03 E-N=-1.877074460128D+04  KE= 2.850890712207D+03
 No NMR shielding tensors so no spin-rotation constants.
 Leave Link  601 at Sun Mar  3 18:13:59 2024, MaxMem=  5368709120 cpu:         4.8
 (Enter /home/k0335/k033513/app/g09/l9999.exe)
 1\1\GINC-C18U04N2\SP\RCAM-B3LYP\6-31G(d,p)\C14H3F18N3O5\K033513\03-Mar
 -2024\0\\#p CAM-B3LYP/6-31G(d,p) SCRF=(PCM,Solvent=Generic,Read) NoSym
 m out=wfn\\Title A201888832_0\\0,1\C,0,-0.615303,3.076767,-3.767347\C,
 0,-0.394267,3.024442,-2.587903\C,0,-0.124993,2.955339,-1.142204\N,0,-0
 .07004,1.564619,-0.70438\C,0,-1.242421,0.948842,-0.333642\O,0,-2.30056
 4,1.567248,-0.277144\N,0,-1.173498,-0.380044,-0.023902\C,0,-2.34979,-1
 .088749,0.477228\F,0,-2.142755,-2.426341,0.244175\F,0,-2.354786,-0.972
 529,1.837346\C,0,-3.797477,-0.814224,-0.045674\F,0,-4.62382,-1.792838,
 0.465641\O,0,-4.459688,0.407683,0.27515\C,0,-4.516939,0.670722,1.65380
 6\F,0,-4.841877,-0.427219,2.355644\F,0,-3.333274,1.143352,2.08457\F,0,
 -5.455471,1.612362,1.871394\C,0,-3.768666,-1.031946,-1.55928\F,0,-3.36
 3972,-2.280519,-1.890108\F,0,-2.930994,-0.182673,-2.198032\F,0,-4.9948
 13,-0.861196,-2.111775\C,0,0.044173,-0.950002,0.288129\O,0,0.150308,-1
 .900002,1.058674\N,0,1.152658,-0.371338,-0.284724\C,0,2.434308,-1.0424
 01,-0.109423\F,0,3.272367,-0.702273,-1.125347\F,0,2.218511,-2.380511,-
 0.333702\C,0,3.144043,-0.898747,1.270815\F,0,2.174666,-0.837351,2.2505
 9\O,0,3.89927,-2.058807,1.661268\C,0,5.107663,-2.226786,0.966636\F,0,5
 .602557,-3.444919,1.247847\F,0,5.991522,-1.298916,1.362862\F,0,4.91360
 3,-2.132327,-0.354232\C,0,3.897056,0.428767,1.347851\F,0,4.779989,0.59
 7142,0.345291\F,0,4.592546,0.515519,2.510274\F,0,3.046636,1.481029,1.3
 44225\C,0,1.149432,0.928278,-0.711017\O,0,2.183204,1.505581,-1.039015\
 H,0,-0.811013,3.125929,-4.814309\H,0,-0.908357,3.48873,-0.592093\H,0,0
 .820265,3.460304,-0.914164\\Version=ES64L-G09RevD.01\HF=-2871.8933086\
 RMSD=7.687e-09\Dipole=0.1040933,0.9608519,-0.6145919\Quadrupole=-7.148
 3507,1.6674781,5.4808726,-1.0785121,1.9436538,1.9560234\PG=C01 [X(C14H
 3F18N3O5)]\\@

 Writing a WFN file to "A201888832/A201888832_0.wfn"


 BREAD HAS TO MOLD IN ORDER TO GET PENICILLIN.
          -- JERRY BOATZ
 Job cpu time:       0 days  0 hours 21 minutes 25.7 seconds.
 File lengths (MBytes):  RWF=    416 Int=      0 D2E=      0 Chk=     15 Scr=      1
 Normal termination of Gaussian 09 at Sun Mar  3 18:13:59 2024.
