 Entering Gaussian System, Link 0=g09
 Initial command:
 /home/k0335/k033513/app/g09/l1.exe "/home/k0335/k033513/app/g09/scratch/Gau-3855941.inp" -scrdir="/home/k0335/k033513/app/g09/scratch/"
 Default is to use a total of  36 processors:
                               36 via shared-memory
                                1 via Linda
 Entering Link 1 = /home/k0335/k033513/app/g09/l1.exe PID=   3855942.
  
 Copyright (c) 1988,1990,1992,1993,1995,1998,2003,2009,2013,
            Gaussian, Inc.  All Rights Reserved.
  
 This is part of the Gaussian(R) 09 program.  It is based on
 the Gaussian(R) 03 system (copyright 2003, Gaussian, Inc.),
 the Gaussian(R) 98 system (copyright 1998, Gaussian, Inc.),
 the Gaussian(R) 94 system (copyright 1995, Gaussian, Inc.),
 the Gaussian 92(TM) system (copyright 1992, Gaussian, Inc.),
 the Gaussian 90(TM) system (copyright 1990, Gaussian, Inc.),
 the Gaussian 88(TM) system (copyright 1988, Gaussian, Inc.),
 the Gaussian 86(TM) system (copyright 1986, Carnegie Mellon
 University), and the Gaussian 82(TM) system (copyright 1983,
 Carnegie Mellon University). Gaussian is a federally registered
 trademark of Gaussian, Inc.
  
 This software contains proprietary and confidential information,
 including trade secrets, belonging to Gaussian, Inc.
  
 This software is provided under written license and may be
 used, copied, transmitted, or stored only in accord with that
 written license.
  
 The following legend is applicable only to US Government
 contracts under FAR:
  
                    RESTRICTED RIGHTS LEGEND
  
 Use, reproduction and disclosure by the US Government is
 subject to restrictions as set forth in subparagraphs (a)
 and (c) of the Commercial Computer Software - Restricted
 Rights clause in FAR 52.227-19.
  
 Gaussian, Inc.
 340 Quinnipiac St., Bldg. 40, Wallingford CT 06492
  
  
 ---------------------------------------------------------------
 Warning -- This program may not be used in any manner that
 competes with the business of Gaussian, Inc. or will provide
 assistance to any competitor of Gaussian, Inc.  The licensee
 of this program is prohibited from giving any competitor of
 Gaussian, Inc. access to this program.  By using this program,
 the user acknowledges that Gaussian, Inc. is engaged in the
 business of creating and licensing software in the field of
 computational chemistry and represents and warrants to the
 licensee that it is not a competitor of Gaussian, Inc. and that
 it will not use this program in any manner prohibited above.
 ---------------------------------------------------------------
  

 Cite this work as:
 Gaussian 09, Revision D.01,
 M. J. Frisch, G. W. Trucks, H. B. Schlegel, G. E. Scuseria, 
 M. A. Robb, J. R. Cheeseman, G. Scalmani, V. Barone, B. Mennucci, 
 G. A. Petersson, H. Nakatsuji, M. Caricato, X. Li, H. P. Hratchian, 
 A. F. Izmaylov, J. Bloino, G. Zheng, J. L. Sonnenberg, M. Hada, 
 M. Ehara, K. Toyota, R. Fukuda, J. Hasegawa, M. Ishida, T. Nakajima, 
 Y. Honda, O. Kitao, H. Nakai, T. Vreven, J. A. Montgomery, Jr., 
 J. E. Peralta, F. Ogliaro, M. Bearpark, J. J. Heyd, E. Brothers, 
 K. N. Kudin, V. N. Staroverov, T. Keith, R. Kobayashi, J. Normand, 
 K. Raghavachari, A. Rendell, J. C. Burant, S. S. Iyengar, J. Tomasi, 
 M. Cossi, N. Rega, J. M. Millam, M. Klene, J. E. Knox, J. B. Cross, 
 V. Bakken, C. Adamo, J. Jaramillo, R. Gomperts, R. E. Stratmann, 
 O. Yazyev, A. J. Austin, R. Cammi, C. Pomelli, J. W. Ochterski, 
 R. L. Martin, K. Morokuma, V. G. Zakrzewski, G. A. Voth, 
 P. Salvador, J. J. Dannenberg, S. Dapprich, A. D. Daniels, 
 O. Farkas, J. B. Foresman, J. V. Ortiz, J. Cioslowski, 
 and D. J. Fox, Gaussian, Inc., Wallingford CT, 2013.
 
 ******************************************
 Gaussian 09:  ES64L-G09RevD.01 24-Apr-2013
                 3-Feb-2025 
 ******************************************
 %nprocshared=24
 Will use up to   24 processors via shared memory.
 %mem=40GB
 %rwf=cytop/DBE0/DBE0_neu.rwf
 %nosave
 %chk=cytop/DBE0/DBE0_neu.chk
 ----------------------------------------------------------------------
 #p CAM-B3LYP/6-31G(d,p) SCRF=(PCM,Solvent=Generic,Read) NoSymm out=wfn
 ----------------------------------------------------------------------
 1/38=1,40=2/1;
 2/12=2,15=1,17=6,18=5,40=1/2;
 3/5=1,6=6,7=101,11=2,16=1,25=1,30=1,70=2203,72=-2,74=-40/1,2,3;
 4//1;
 5/5=2,38=5/2;
 6/7=2,8=2,9=2,10=2,28=1/1;
 99/5=1,6=100,9=1/99;
 Leave Link    1 at Mon Feb  3 21:39:45 2025, MaxMem=  5368709120 cpu:         2.3
 (Enter /home/k0335/k033513/app/g09/l101.exe)
 --------------
 Title DBE0_neu
 --------------
 Symbolic Z-matrix:
 Charge =  0 Multiplicity = 1
 F                     7.32831   0.10216   1.90605 
 C                     6.37833  -0.79342   2.25562 
 F                     6.74858  -1.3407    3.42956 
 C                     6.12685  -1.81517   1.16999 
 F                     5.46073  -2.88512   1.6584 
 F                     7.25341  -2.27992   0.5988 
 C                     5.26145  -1.00639   0.24823 
 F                     6.0786   -0.05526  -0.32907 
 C                     4.68802  -1.86489  -0.84906 
 F                     3.85319  -2.79221  -0.31408 
 C                     4.02243  -1.06088  -1.96769 
 O                     3.50162   0.12392  -1.58371 
 O                     3.90414  -1.40295  -3.13479 
 F                     5.71569  -2.59542  -1.38882 
 C                     4.35524  -0.29656   1.26714 
 F                     4.05852   0.95515   0.81028 
 C                     3.04159  -0.95438   1.75455 
 F                     2.69721  -0.37414   2.95541 
 C                     1.87854  -0.73317   0.77282 
 N                     1.11801   0.3974    1.02174 
 C                    -0.04362   0.73626   0.21712 
 C                    -1.30194  -0.04285   0.64454 
 N                    -2.53452   0.20645  -0.12733 
 C                    -2.43006  -0.37155  -1.47957 
 C                    -3.77328  -0.55298  -2.20623 
 C                    -4.84806  -1.31009  -1.41852 
 C                    -4.42952  -2.71443  -1.00796 
 C                    -2.9649    1.61493  -0.15778 
 C                    -3.22643   2.21039   1.2342 
 C                    -3.71783   3.66086   1.18647 
 C                    -5.10496   3.81702   0.58226 
 O                     1.65134  -1.47428  -0.18142 
 F                     3.24124  -2.26355   2.05033 
 O                     5.18081  -0.05152   2.44381 
 H                     3.06847   0.46158  -2.39963 
 H                     1.23096   0.85838   1.92121 
 H                     0.19693   0.5362   -0.83124 
 H                    -0.19199   1.8133    0.33361 
 H                    -1.08381  -1.11829   0.62303 
 H                    -1.49703   0.15426   1.70431 
 H                    -1.77039   0.23785  -2.1094 
 H                    -1.96127  -1.3614   -1.42023 
 H                    -4.17574   0.42389  -2.50015 
 H                    -3.58187  -1.08843  -3.14643 
 H                    -5.13655  -0.74047  -0.52675 
 H                    -5.74605  -1.3831   -2.04508 
 H                    -3.61398  -2.69134  -0.27778 
 H                    -4.10287  -3.2968   -1.87686 
 H                    -5.27362  -3.23823  -0.54582 
 H                    -2.23793   2.23394  -0.69688 
 H                    -3.90292   1.68023  -0.71582 
 H                    -2.30357   2.20309   1.82507 
 H                    -3.95659   1.59339   1.77222 
 H                    -3.74191   4.04922   2.21311 
 H                    -3.0024    4.28071   0.63082 
 H                    -5.43454   4.8567    0.66808 
 H                    -5.83416   3.18669   1.1019 
 H                    -5.11591   3.55592  -0.47965 
 
 NAtoms=     58 NQM=       58 NQMF=       0 NMMI=      0 NMMIF=      0
                NMic=       0 NMicF=      0.
                    Isotopes and Nuclear Properties:
 (Nuclear quadrupole moments (NQMom) in fm**2, nuclear magnetic moments (NMagM)
  in nuclear magnetons)

  Atom         1           2           3           4           5           6           7           8           9          10
 IAtWgt=          19          12          19          12          19          19          12          19          12          19
 AtmWgt=  18.9984033  12.0000000  18.9984033  12.0000000  18.9984033  18.9984033  12.0000000  18.9984033  12.0000000  18.9984033
 NucSpn=           1           0           1           0           1           1           0           1           0           1
 AtZEff=   0.0000000   0.0000000   0.0000000   0.0000000   0.0000000   0.0000000   0.0000000   0.0000000   0.0000000   0.0000000
 NQMom=    0.0000000   0.0000000   0.0000000   0.0000000   0.0000000   0.0000000   0.0000000   0.0000000   0.0000000   0.0000000
 NMagM=    2.6288670   0.0000000   2.6288670   0.0000000   2.6288670   2.6288670   0.0000000   2.6288670   0.0000000   2.6288670
 AtZNuc=   9.0000000   6.0000000   9.0000000   6.0000000   9.0000000   9.0000000   6.0000000   9.0000000   6.0000000   9.0000000

  Atom        11          12          13          14          15          16          17          18          19          20
 IAtWgt=          12          16          16          19          12          19          12          19          12          14
 AtmWgt=  12.0000000  15.9949146  15.9949146  18.9984033  12.0000000  18.9984033  12.0000000  18.9984033  12.0000000  14.0030740
 NucSpn=           0           0           0           1           0           1           0           1           0           2
 AtZEff=   0.0000000   0.0000000   0.0000000   0.0000000   0.0000000   0.0000000   0.0000000   0.0000000   0.0000000   0.0000000
 NQMom=    0.0000000   0.0000000   0.0000000   0.0000000   0.0000000   0.0000000   0.0000000   0.0000000   0.0000000   2.0440000
 NMagM=    0.0000000   0.0000000   0.0000000   2.6288670   0.0000000   2.6288670   0.0000000   2.6288670   0.0000000   0.4037610
 AtZNuc=   6.0000000   8.0000000   8.0000000   9.0000000   6.0000000   9.0000000   6.0000000   9.0000000   6.0000000   7.0000000

  Atom        21          22          23          24          25          26          27          28          29          30
 IAtWgt=          12          12          14          12          12          12          12          12          12          12
 AtmWgt=  12.0000000  12.0000000  14.0030740  12.0000000  12.0000000  12.0000000  12.0000000  12.0000000  12.0000000  12.0000000
 NucSpn=           0           0           2           0           0           0           0           0           0           0
 AtZEff=   0.0000000   0.0000000   0.0000000   0.0000000   0.0000000   0.0000000   0.0000000   0.0000000   0.0000000   0.0000000
 NQMom=    0.0000000   0.0000000   2.0440000   0.0000000   0.0000000   0.0000000   0.0000000   0.0000000   0.0000000   0.0000000
 NMagM=    0.0000000   0.0000000   0.4037610   0.0000000   0.0000000   0.0000000   0.0000000   0.0000000   0.0000000   0.0000000
 AtZNuc=   6.0000000   6.0000000   7.0000000   6.0000000   6.0000000   6.0000000   6.0000000   6.0000000   6.0000000   6.0000000

  Atom        31          32          33          34          35          36          37          38          39          40
 IAtWgt=          12          16          19          16           1           1           1           1           1           1
 AtmWgt=  12.0000000  15.9949146  18.9984033  15.9949146   1.0078250   1.0078250   1.0078250   1.0078250   1.0078250   1.0078250
 NucSpn=           0           0           1           0           1           1           1           1           1           1
 AtZEff=   0.0000000   0.0000000   0.0000000   0.0000000   0.0000000   0.0000000   0.0000000   0.0000000   0.0000000   0.0000000
 NQMom=    0.0000000   0.0000000   0.0000000   0.0000000   0.0000000   0.0000000   0.0000000   0.0000000   0.0000000   0.0000000
 NMagM=    0.0000000   0.0000000   2.6288670   0.0000000   2.7928460   2.7928460   2.7928460   2.7928460   2.7928460   2.7928460
 AtZNuc=   6.0000000   8.0000000   9.0000000   8.0000000   1.0000000   1.0000000   1.0000000   1.0000000   1.0000000   1.0000000

  Atom        41          42          43          44          45          46          47          48          49          50
 IAtWgt=           1           1           1           1           1           1           1           1           1           1
 AtmWgt=   1.0078250   1.0078250   1.0078250   1.0078250   1.0078250   1.0078250   1.0078250   1.0078250   1.0078250   1.0078250
 NucSpn=           1           1           1           1           1           1           1           1           1           1
 AtZEff=   0.0000000   0.0000000   0.0000000   0.0000000   0.0000000   0.0000000   0.0000000   0.0000000   0.0000000   0.0000000
 NQMom=    0.0000000   0.0000000   0.0000000   0.0000000   0.0000000   0.0000000   0.0000000   0.0000000   0.0000000   0.0000000
 NMagM=    2.7928460   2.7928460   2.7928460   2.7928460   2.7928460   2.7928460   2.7928460   2.7928460   2.7928460   2.7928460
 AtZNuc=   1.0000000   1.0000000   1.0000000   1.0000000   1.0000000   1.0000000   1.0000000   1.0000000   1.0000000   1.0000000

  Atom        51          52          53          54          55          56          57          58
 IAtWgt=           1           1           1           1           1           1           1           1
 AtmWgt=   1.0078250   1.0078250   1.0078250   1.0078250   1.0078250   1.0078250   1.0078250   1.0078250
 NucSpn=           1           1           1           1           1           1           1           1
 AtZEff=   0.0000000   0.0000000   0.0000000   0.0000000   0.0000000   0.0000000   0.0000000   0.0000000
 NQMom=    0.0000000   0.0000000   0.0000000   0.0000000   0.0000000   0.0000000   0.0000000   0.0000000
 NMagM=    2.7928460   2.7928460   2.7928460   2.7928460   2.7928460   2.7928460   2.7928460   2.7928460
 AtZNuc=   1.0000000   1.0000000   1.0000000   1.0000000   1.0000000   1.0000000   1.0000000   1.0000000
 Leave Link  101 at Mon Feb  3 21:39:46 2025, MaxMem=  5368709120 cpu:         0.8
 (Enter /home/k0335/k033513/app/g09/l202.exe)
 Symmetry turned off by external request.
 Stoichiometry    C18H24F10N2O4
 Framework group  C1[X(C18H24F10N2O4)]
 Deg. of freedom   168
 Full point group                 C1      NOp   1
                          Input orientation:                          
 ---------------------------------------------------------------------
 Center     Atomic      Atomic             Coordinates (Angstroms)
 Number     Number       Type             X           Y           Z
 ---------------------------------------------------------------------
      1          9           0        7.328310    0.102162    1.906052
      2          6           0        6.378333   -0.793418    2.255619
      3          9           0        6.748577   -1.340696    3.429563
      4          6           0        6.126852   -1.815170    1.169986
      5          9           0        5.460734   -2.885115    1.658397
      6          9           0        7.253408   -2.279916    0.598802
      7          6           0        5.261452   -1.006391    0.248229
      8          9           0        6.078602   -0.055264   -0.329071
      9          6           0        4.688016   -1.864887   -0.849057
     10          9           0        3.853190   -2.792212   -0.314079
     11          6           0        4.022430   -1.060877   -1.967688
     12          8           0        3.501615    0.123921   -1.583708
     13          8           0        3.904142   -1.402953   -3.134788
     14          9           0        5.715692   -2.595423   -1.388817
     15          6           0        4.355238   -0.296563    1.267140
     16          9           0        4.058524    0.955152    0.810279
     17          6           0        3.041587   -0.954382    1.754549
     18          9           0        2.697212   -0.374144    2.955412
     19          6           0        1.878544   -0.733171    0.772815
     20          7           0        1.118009    0.397403    1.021743
     21          6           0       -0.043624    0.736261    0.217117
     22          6           0       -1.301944   -0.042847    0.644537
     23          7           0       -2.534520    0.206451   -0.127332
     24          6           0       -2.430057   -0.371551   -1.479573
     25          6           0       -3.773282   -0.552980   -2.206229
     26          6           0       -4.848059   -1.310090   -1.418515
     27          6           0       -4.429520   -2.714430   -1.007956
     28          6           0       -2.964895    1.614930   -0.157775
     29          6           0       -3.226435    2.210394    1.234198
     30          6           0       -3.717830    3.660857    1.186471
     31          6           0       -5.104965    3.817017    0.582258
     32          8           0        1.651341   -1.474283   -0.181420
     33          9           0        3.241236   -2.263550    2.050331
     34          8           0        5.180809   -0.051521    2.443810
     35          1           0        3.068472    0.461582   -2.399635
     36          1           0        1.230955    0.858384    1.921212
     37          1           0        0.196933    0.536201   -0.831242
     38          1           0       -0.191990    1.813296    0.333612
     39          1           0       -1.083807   -1.118293    0.623032
     40          1           0       -1.497028    0.154264    1.704310
     41          1           0       -1.770386    0.237847   -2.109404
     42          1           0       -1.961265   -1.361403   -1.420228
     43          1           0       -4.175740    0.423894   -2.500149
     44          1           0       -3.581871   -1.088426   -3.146431
     45          1           0       -5.136550   -0.740470   -0.526745
     46          1           0       -5.746045   -1.383102   -2.045080
     47          1           0       -3.613976   -2.691340   -0.277776
     48          1           0       -4.102874   -3.296805   -1.876862
     49          1           0       -5.273616   -3.238227   -0.545822
     50          1           0       -2.237934    2.233935   -0.696877
     51          1           0       -3.902920    1.680229   -0.715821
     52          1           0       -2.303569    2.203087    1.825074
     53          1           0       -3.956589    1.593394    1.772223
     54          1           0       -3.741911    4.049222    2.213109
     55          1           0       -3.002402    4.280707    0.630823
     56          1           0       -5.434541    4.856701    0.668081
     57          1           0       -5.834156    3.186690    1.101904
     58          1           0       -5.115908    3.555919   -0.479654
 ---------------------------------------------------------------------
 Rotational constants (GHZ):      0.2294334      0.0550205      0.0506704
 Leave Link  202 at Mon Feb  3 21:39:46 2025, MaxMem=  5368709120 cpu:         0.0
 (Enter /home/k0335/k033513/app/g09/l301.exe)
 Standard basis: 6-31G(d,p) (6D, 7F)
 Ernie: Thresh=  0.10000D-02 Tol=  0.10000D-05 Strict=F.
   630 basis functions,  1120 primitive gaussians,   630 cartesian basis functions
   134 alpha electrons      134 beta electrons
       nuclear repulsion energy      4369.2485858494 Hartrees.
 IExCor=20419 DFT=T Ex+Corr=CAM-B3LYP ExCW=0 ScaHFX=  1.000000
 ScaDFX=  1.000000  1.000000  1.000000  0.810000 ScalE2=  1.000000  1.000000
 IRadAn=      0 IRanWt=     -1 IRanGd=            0 ICorTp=0 IEmpDi=  4
  HFx wShort=  0.000000 wLong=  0.330000 cFull=  0.190000 cShort=  0.000000 cLong=  0.460000
  DFx wShort=  0.000000 wLong=  0.330000 cFull=  0.190000 cShort=  0.000000 cLong=  0.460000
 NAtoms=   58 NActive=   58 NUniq=   58 SFac= 1.00D+00 NAtFMM=   60 NAOKFM=F Big=F
 Integral buffers will be    131072 words long.
 Raffenetti 2 integral format.
 Two-electron integral symmetry is turned off.
 Using the following non-standard input for PCM:
 eps=2.05
 --- end of non-standard input.
 ------------------------------------------------------------------------------
 Polarizable Continuum Model (PCM)
 =================================
 Model                : PCM (using non-symmetric T matrix).
 Atomic radii         : UFF (Universal Force Field).
 Polarization charges : Total charges.
 Charge compensation  : None.
 Solution method      : On-the-fly selection.
 Cavity type          : Scaled VdW (van der Waals Surface) (Alpha=1.100).
 Cavity algorithm     : GePol (No added spheres)
                        Default sphere list used, NSphG=   58.
                        Lebedev-Laikov grids with approx.  5.0 points / Ang**2.
                        Smoothing algorithm: Karplus/York (Gamma=1.0000).
                        Polarization charges: spherical gaussians, with
                                              point-specific exponents (IZeta= 3).
                        Self-potential: point-specific (ISelfS= 7).
                        Self-field    : sphere-specific E.n sum rule (ISelfD= 2).
 Solvent              : Generic,
                        Eps                           =   2.050000
                        Eps(infinity)                 =   0.000000
                        RSolv                         =   0.000000 Ang.
                        Molar volume                  =   0.000000 cm**3/mol
                        Thermal expansion coefficient =   0.000000 K**-1
                        Absolute temperature          = 298.150000 K
                        Numeral density               =   0.000000 Ang**-3
                        Hydrogen bond acidity         =   0.000000
                        Hydrogen bond basicity        =   0.000000
                        Surface tension at interface  =   0.000000 (cal/mol)*Ang**-2
                        Carbon aromaticity            =   0.000000
                        Electronegative halogenicity  =   0.000000
 ------------------------------------------------------------------------------
 GePol: Number of generator spheres                  =      58
 GePol: Total number of spheres                      =      58
 GePol: Number of exposed spheres                    =      57 ( 98.28%)
 GePol: Number of points                             =    4013
 GePol: Average weight of points                     =       0.13
 GePol: Minimum weight of points                     =   0.30D-11
 GePol: Maximum weight of points                     =    0.20577
 GePol: Number of points with low weight             =     219
 GePol: Fraction of low-weight points (<1% of avg)   =       5.46%
 GePol: Cavity surface area                          =    512.713 Ang**2
 GePol: Cavity volume                                =    584.741 Ang**3
 Leave Link  301 at Mon Feb  3 21:39:46 2025, MaxMem=  5368709120 cpu:         0.7
 (Enter /home/k0335/k033513/app/g09/l302.exe)
 NPDir=0 NMtPBC=     1 NCelOv=     1 NCel=       1 NClECP=     1 NCelD=      1
         NCelK=      1 NCelE2=     1 NClLst=     1 CellRange=     0.0.
 One-electron integrals computed using PRISM.
 NBasis=   630 RedAO= T EigKep=  8.23D-04  NBF=   630
 NBsUse=   630 1.00D-06 EigRej= -1.00D+00 NBFU=   630
 Precomputing XC quadrature grid using
 IXCGrd= 4 IRadAn=           0 IRanWt=          -1 IRanGd=           0 AccXCQ= 0.00D+00.
 Generated NRdTot=       0 NPtTot=           0 NUsed=           0 NTot=          32
 NSgBfM=   596   596   599   602   602 MxSgAt=    58 MxSgA2=    58.
 Leave Link  302 at Mon Feb  3 21:39:47 2025, MaxMem=  5368709120 cpu:        14.2
 (Enter /home/k0335/k033513/app/g09/l303.exe)
 DipDrv:  MaxL=1.
 Leave Link  303 at Mon Feb  3 21:39:47 2025, MaxMem=  5368709120 cpu:         0.9
 (Enter /home/k0335/k033513/app/g09/l401.exe)
 ExpMin= 1.61D-01 ExpMax= 7.00D+03 ExpMxC= 1.05D+03 IAcc=1 IRadAn=         1 AccDes= 0.00D+00
 Harris functional with IExCor=20419 and IRadAn=       1 diagonalized for initial guess.
 HarFok:  IExCor=20419 AccDes= 0.00D+00 IRadAn=         1 IDoV= 1 UseB2=F ITyADJ=14
 ICtDFT=  3500011 ScaDFX=  1.000000  1.000000  1.000000  1.000000
 FoFCou: FMM=F IPFlag=           0 FMFlag=      100000 FMFlg1=           0
         NFxFlg=           0 DoJE=T BraDBF=F KetDBF=T FulRan=T
         wScrn=  0.000000 ICntrl=     500 IOpCl=  0 I1Cent=   200000004 NGrid=           0
         NMat0=    1 NMatS0=      1 NMatT0=    0 NMatD0=    1 NMtDS0=    0 NMtDT0=    0
 Symmetry not used in FoFCou.
 Harris En= -2039.00836330748    
 JPrj=0 DoOrth=F DoCkMO=F.
 Leave Link  401 at Mon Feb  3 21:39:48 2025, MaxMem=  5368709120 cpu:        15.9
 (Enter /home/k0335/k033513/app/g09/l502.exe)
 Closed shell SCF:
 Using DIIS extrapolation, IDIIS=  1040.
 Two-electron integral symmetry not used.
 IVT=     1228266 IEndB=     1228266 NGot=  5368709120 MDV=  5367895025
 LenX=  5367895025 LenY=  5367497495
 Requested convergence on RMS density matrix=1.00D-08 within 128 cycles.
 Requested convergence on MAX density matrix=1.00D-06.
 Requested convergence on             energy=1.00D-06.
 No special actions if energy rises.
 Fock matrices will be formed incrementally for  20 cycles.

 Cycle   1  Pass 1  IDiag  1:
 FoFJK:  IHMeth= 1 ICntrl=       0 DoSepK=T KAlg= 0 I1Cent=   0 FoldK=F
 IRaf=         1 NMat=   1 IRICut=       1 DoRegI=T DoRafI=F ISym2E= 0.
 FoFCou: FMM=F IPFlag=           0 FMFlag=      100000 FMFlg1=           0
         NFxFlg=           0 DoJE=T BraDBF=F KetDBF=F FulRan=T
         wScrn=  0.000000 ICntrl=     500 IOpCl=  0 I1Cent=           0 NGrid=           0
         NMat0=    1 NMatS0=      1 NMatT0=    0 NMatD0=    1 NMtDS0=    0 NMtDT0=    0
 Symmetry not used in FoFCou.
 Inv3:  Mode=1 IEnd=    48312507.
 Iteration    1 A*A^-1 deviation from unit magnitude is 8.88D-15 for   3998.
 Iteration    1 A*A^-1 deviation from orthogonality  is 5.85D-15 for   4012   2693.
 Iteration    1 A^-1*A deviation from unit magnitude is 8.88D-15 for   3998.
 Iteration    1 A^-1*A deviation from orthogonality  is 3.75D-15 for   3984   2555.
 E= -2107.78623693750    
 DIIS: error= 5.62D-02 at cycle   1 NSaved=   1.
 NSaved= 1 IEnMin= 1 EnMin= -2107.78623693750     IErMin= 1 ErrMin= 5.62D-02
 ErrMax= 5.62D-02  0.00D+00 EMaxC= 1.00D-01 BMatC= 1.71D+00 BMatP= 1.71D+00
 IDIUse=3 WtCom= 4.38D-01 WtEn= 5.62D-01
 Coeff-Com:  0.100D+01
 Coeff-En:   0.100D+01
 Coeff:      0.100D+01
 Gap=     0.467 Goal=   None    Shift=    0.000
 GapD=    0.467 DampG=2.000 DampE=0.500 DampFc=1.0000 IDamp=-1.
 RMSDP=2.42D-03 MaxDP=1.33D-01              OVMax= 1.24D-01

 Cycle   2  Pass 1  IDiag  1:
 RMSU=  2.42D-03    CP:  9.93D-01
 E= -2108.03922161229     Delta-E=       -0.252984674793 Rises=F Damp=F
 DIIS: error= 1.67D-02 at cycle   2 NSaved=   2.
 NSaved= 2 IEnMin= 2 EnMin= -2108.03922161229     IErMin= 2 ErrMin= 1.67D-02
 ErrMax= 1.67D-02  0.00D+00 EMaxC= 1.00D-01 BMatC= 6.11D-01 BMatP= 1.71D+00
 IDIUse=3 WtCom= 8.33D-01 WtEn= 1.67D-01
 Coeff-Com:  0.349D+00 0.651D+00
 Coeff-En:   0.336D+00 0.664D+00
 Coeff:      0.347D+00 0.653D+00
 Gap=     0.268 Goal=   None    Shift=    0.000
 RMSDP=1.14D-03 MaxDP=7.22D-02 DE=-2.53D-01 OVMax= 7.61D-02

 Cycle   3  Pass 1  IDiag  1:
 RMSU=  7.05D-04    CP:  9.99D-01  6.34D-01
 E= -2108.34200148695     Delta-E=       -0.302779874656 Rises=F Damp=F
 DIIS: error= 7.07D-03 at cycle   3 NSaved=   3.
 NSaved= 3 IEnMin= 3 EnMin= -2108.34200148695     IErMin= 3 ErrMin= 7.07D-03
 ErrMax= 7.07D-03  0.00D+00 EMaxC= 1.00D-01 BMatC= 1.14D-01 BMatP= 6.11D-01
 IDIUse=3 WtCom= 9.29D-01 WtEn= 7.07D-02
 Coeff-Com:  0.644D-01 0.316D+00 0.620D+00
 Coeff-En:   0.000D+00 0.115D+00 0.885D+00
 Coeff:      0.598D-01 0.302D+00 0.639D+00
 Gap=     0.282 Goal=   None    Shift=    0.000
 RMSDP=5.10D-04 MaxDP=3.92D-02 DE=-3.03D-01 OVMax= 6.19D-02

 Cycle   4  Pass 1  IDiag  1:
 RMSU=  2.81D-04    CP:  9.95D-01  7.24D-01  4.90D-01
 E= -2108.40890150874     Delta-E=       -0.066900021795 Rises=F Damp=F
 DIIS: error= 2.46D-03 at cycle   4 NSaved=   4.
 NSaved= 4 IEnMin= 4 EnMin= -2108.40890150874     IErMin= 4 ErrMin= 2.46D-03
 ErrMax= 2.46D-03  0.00D+00 EMaxC= 1.00D-01 BMatC= 1.10D-02 BMatP= 1.14D-01
 IDIUse=3 WtCom= 9.75D-01 WtEn= 2.46D-02
 Coeff-Com:  0.630D-02 0.101D+00 0.327D+00 0.566D+00
 Coeff-En:   0.000D+00 0.000D+00 0.265D-01 0.973D+00
 Coeff:      0.615D-02 0.981D-01 0.320D+00 0.576D+00
 Gap=     0.267 Goal=   None    Shift=    0.000
 RMSDP=1.55D-04 MaxDP=1.40D-02 DE=-6.69D-02 OVMax= 2.10D-02

 Cycle   5  Pass 1  IDiag  1:
 RMSU=  7.05D-05    CP:  9.95D-01  7.25D-01  6.20D-01  6.31D-01
 E= -2108.41657694622     Delta-E=       -0.007675437475 Rises=F Damp=F
 DIIS: error= 5.19D-04 at cycle   5 NSaved=   5.
 NSaved= 5 IEnMin= 5 EnMin= -2108.41657694622     IErMin= 5 ErrMin= 5.19D-04
 ErrMax= 5.19D-04  0.00D+00 EMaxC= 1.00D-01 BMatC= 5.80D-04 BMatP= 1.10D-02
 IDIUse=3 WtCom= 9.95D-01 WtEn= 5.19D-03
 Coeff-Com:  0.642D-03 0.404D-01 0.151D+00 0.316D+00 0.492D+00
 Coeff-En:   0.000D+00 0.000D+00 0.000D+00 0.000D+00 0.100D+01
 Coeff:      0.639D-03 0.402D-01 0.150D+00 0.315D+00 0.495D+00
 Gap=     0.265 Goal=   None    Shift=    0.000
 RMSDP=3.40D-05 MaxDP=3.07D-03 DE=-7.68D-03 OVMax= 5.71D-03

 Cycle   6  Pass 1  IDiag  1:
 RMSU=  2.08D-05    CP:  9.95D-01  7.26D-01  6.20D-01  6.51D-01  6.32D-01
 E= -2108.41699762802     Delta-E=       -0.000420681806 Rises=F Damp=F
 DIIS: error= 1.26D-04 at cycle   6 NSaved=   6.
 NSaved= 6 IEnMin= 6 EnMin= -2108.41699762802     IErMin= 6 ErrMin= 1.26D-04
 ErrMax= 1.26D-04  0.00D+00 EMaxC= 1.00D-01 BMatC= 2.87D-05 BMatP= 5.80D-04
 IDIUse=3 WtCom= 9.99D-01 WtEn= 1.26D-03
 Coeff-Com: -0.530D-03 0.434D-02 0.225D-01 0.571D-01 0.205D+00 0.712D+00
 Coeff-En:   0.000D+00 0.000D+00 0.000D+00 0.000D+00 0.000D+00 0.100D+01
 Coeff:     -0.529D-03 0.434D-02 0.225D-01 0.570D-01 0.204D+00 0.712D+00
 Gap=     0.266 Goal=   None    Shift=    0.000
 RMSDP=1.10D-05 MaxDP=6.83D-04 DE=-4.21D-04 OVMax= 1.06D-03

 Cycle   7  Pass 1  IDiag  1:
 RMSU=  7.43D-06    CP:  9.95D-01  7.27D-01  6.23D-01  6.65D-01  7.17D-01
                    CP:  8.72D-01
 E= -2108.41701912234     Delta-E=       -0.000021494313 Rises=F Damp=F
 DIIS: error= 4.00D-05 at cycle   7 NSaved=   7.
 NSaved= 7 IEnMin= 7 EnMin= -2108.41701912234     IErMin= 7 ErrMin= 4.00D-05
 ErrMax= 4.00D-05  0.00D+00 EMaxC= 1.00D-01 BMatC= 4.23D-06 BMatP= 2.87D-05
 IDIUse=1 WtCom= 1.00D+00 WtEn= 0.00D+00
 Coeff-Com: -0.236D-03-0.383D-02-0.110D-01-0.190D-01 0.306D-01 0.326D+00
 Coeff-Com:  0.678D+00
 Coeff:     -0.236D-03-0.383D-02-0.110D-01-0.190D-01 0.306D-01 0.326D+00
 Coeff:      0.678D+00
 Gap=     0.266 Goal=   None    Shift=    0.000
 RMSDP=3.55D-06 MaxDP=2.53D-04 DE=-2.15D-05 OVMax= 4.99D-04

 Cycle   8  Pass 1  IDiag  1:
 RMSU=  2.23D-06    CP:  9.95D-01  7.27D-01  6.24D-01  6.65D-01  7.35D-01
                    CP:  9.71D-01  8.53D-01
 E= -2108.41702280405     Delta-E=       -0.000003681716 Rises=F Damp=F
 DIIS: error= 1.12D-05 at cycle   8 NSaved=   8.
 NSaved= 8 IEnMin= 8 EnMin= -2108.41702280405     IErMin= 8 ErrMin= 1.12D-05
 ErrMax= 1.12D-05  0.00D+00 EMaxC= 1.00D-01 BMatC= 3.13D-07 BMatP= 4.23D-06
 IDIUse=1 WtCom= 1.00D+00 WtEn= 0.00D+00
 Coeff-Com: -0.561D-04-0.192D-02-0.616D-02-0.125D-01-0.889D-04 0.796D-01
 Coeff-Com:  0.283D+00 0.658D+00
 Coeff:     -0.561D-04-0.192D-02-0.616D-02-0.125D-01-0.889D-04 0.796D-01
 Coeff:      0.283D+00 0.658D+00
 Gap=     0.266 Goal=   None    Shift=    0.000
 RMSDP=1.11D-06 MaxDP=6.73D-05 DE=-3.68D-06 OVMax= 1.30D-04

 Cycle   9  Pass 1  IDiag  1:
 RMSU=  8.51D-07    CP:  9.95D-01  7.27D-01  6.24D-01  6.65D-01  7.41D-01
                    CP:  9.85D-01  9.13D-01  9.82D-01
 E= -2108.41702307494     Delta-E=       -0.000000270888 Rises=F Damp=F
 DIIS: error= 6.71D-06 at cycle   9 NSaved=   9.
 NSaved= 9 IEnMin= 9 EnMin= -2108.41702307494     IErMin= 9 ErrMin= 6.71D-06
 ErrMax= 6.71D-06  0.00D+00 EMaxC= 1.00D-01 BMatC= 4.13D-08 BMatP= 3.13D-07
 IDIUse=1 WtCom= 1.00D+00 WtEn= 0.00D+00
 Coeff-Com:  0.914D-05-0.188D-03-0.735D-03-0.232D-02-0.403D-02-0.247D-01
 Coeff-Com:  0.666D-02 0.249D+00 0.776D+00
 Coeff:      0.914D-05-0.188D-03-0.735D-03-0.232D-02-0.403D-02-0.247D-01
 Coeff:      0.666D-02 0.249D+00 0.776D+00
 Gap=     0.266 Goal=   None    Shift=    0.000
 RMSDP=5.87D-07 MaxDP=5.79D-05 DE=-2.71D-07 OVMax= 8.46D-05

 Cycle  10  Pass 1  IDiag  1:
 RMSU=  3.17D-07    CP:  9.95D-01  7.27D-01  6.24D-01  6.65D-01  7.45D-01
                    CP:  9.93D-01  9.43D-01  1.10D+00  9.46D-01
 E= -2108.41702312418     Delta-E=       -0.000000049246 Rises=F Damp=F
 DIIS: error= 2.36D-06 at cycle  10 NSaved=  10.
 NSaved=10 IEnMin=10 EnMin= -2108.41702312418     IErMin=10 ErrMin= 2.36D-06
 ErrMax= 2.36D-06  0.00D+00 EMaxC= 1.00D-01 BMatC= 5.32D-09 BMatP= 4.13D-08
 IDIUse=1 WtCom= 1.00D+00 WtEn= 0.00D+00
 Coeff-Com:  0.111D-04 0.157D-03 0.452D-03 0.528D-03-0.104D-02-0.198D-01
 Coeff-Com: -0.296D-01 0.103D-01 0.299D+00 0.740D+00
 Coeff:      0.111D-04 0.157D-03 0.452D-03 0.528D-03-0.104D-02-0.198D-01
 Coeff:     -0.296D-01 0.103D-01 0.299D+00 0.740D+00
 Gap=     0.266 Goal=   None    Shift=    0.000
 RMSDP=2.03D-07 MaxDP=1.70D-05 DE=-4.92D-08 OVMax= 3.50D-05

 Cycle  11  Pass 1  IDiag  1:
 RMSU=  1.19D-07    CP:  9.95D-01  7.27D-01  6.24D-01  6.65D-01  7.46D-01
                    CP:  9.94D-01  9.55D-01  1.14D+00  1.06D+00  9.54D-01
 E= -2108.41702312948     Delta-E=       -0.000000005298 Rises=F Damp=F
 DIIS: error= 1.66D-06 at cycle  11 NSaved=  11.
 NSaved=11 IEnMin=11 EnMin= -2108.41702312948     IErMin=11 ErrMin= 1.66D-06
 ErrMax= 1.66D-06  0.00D+00 EMaxC= 1.00D-01 BMatC= 1.77D-09 BMatP= 5.32D-09
 IDIUse=1 WtCom= 1.00D+00 WtEn= 0.00D+00
 Coeff-Com:  0.574D-05 0.126D-03 0.390D-03 0.659D-03 0.125D-03-0.852D-02
 Coeff-Com: -0.184D-01-0.312D-01 0.670D-01 0.442D+00 0.548D+00
 Coeff:      0.574D-05 0.126D-03 0.390D-03 0.659D-03 0.125D-03-0.852D-02
 Coeff:     -0.184D-01-0.312D-01 0.670D-01 0.442D+00 0.548D+00
 Gap=     0.266 Goal=   None    Shift=    0.000
 RMSDP=7.65D-08 MaxDP=8.21D-06 DE=-5.30D-09 OVMax= 1.45D-05

 Cycle  12  Pass 1  IDiag  1:
 RMSU=  4.35D-08    CP:  9.95D-01  7.27D-01  6.24D-01  6.65D-01  7.46D-01
                    CP:  9.94D-01  9.57D-01  1.15D+00  1.09D+00  1.06D+00
                    CP:  7.67D-01
 E= -2108.41702313080     Delta-E=       -0.000000001321 Rises=F Damp=F
 DIIS: error= 2.82D-07 at cycle  12 NSaved=  12.
 NSaved=12 IEnMin=12 EnMin= -2108.41702313080     IErMin=12 ErrMin= 2.82D-07
 ErrMax= 2.82D-07  0.00D+00 EMaxC= 1.00D-01 BMatC= 7.29D-11 BMatP= 1.77D-09
 IDIUse=1 WtCom= 1.00D+00 WtEn= 0.00D+00
 Coeff-Com:  0.787D-07 0.176D-04 0.592D-04 0.125D-03 0.304D-03 0.146D-03
 Coeff-Com: -0.107D-02-0.107D-01-0.206D-01 0.277D-01 0.150D+00 0.854D+00
 Coeff:      0.787D-07 0.176D-04 0.592D-04 0.125D-03 0.304D-03 0.146D-03
 Coeff:     -0.107D-02-0.107D-01-0.206D-01 0.277D-01 0.150D+00 0.854D+00
 Gap=     0.266 Goal=   None    Shift=    0.000
 RMSDP=2.50D-08 MaxDP=2.01D-06 DE=-1.32D-09 OVMax= 4.04D-06

 Cycle  13  Pass 1  IDiag  1:
 RMSU=  1.28D-08    CP:  9.95D-01  7.27D-01  6.24D-01  6.65D-01  7.46D-01
                    CP:  9.93D-01  9.58D-01  1.15D+00  1.10D+00  1.09D+00
                    CP:  8.65D-01  1.02D+00
 E= -2108.41702313078     Delta-E=        0.000000000019 Rises=F Damp=F
 DIIS: error= 8.33D-08 at cycle  13 NSaved=  13.
 NSaved=13 IEnMin=12 EnMin= -2108.41702313080     IErMin=13 ErrMin= 8.33D-08
 ErrMax= 8.33D-08  0.00D+00 EMaxC= 1.00D-01 BMatC= 1.52D-11 BMatP= 7.29D-11
 IDIUse=1 WtCom= 1.00D+00 WtEn= 0.00D+00
 Coeff-Com: -0.565D-06-0.449D-05-0.113D-04-0.933D-05 0.146D-03 0.902D-03
 Coeff-Com:  0.140D-02-0.191D-02-0.164D-01-0.322D-01 0.106D-01 0.400D+00
 Coeff-Com:  0.637D+00
 Coeff:     -0.565D-06-0.449D-05-0.113D-04-0.933D-05 0.146D-03 0.902D-03
 Coeff:      0.140D-02-0.191D-02-0.164D-01-0.322D-01 0.106D-01 0.400D+00
 Coeff:      0.637D+00
 Gap=     0.266 Goal=   None    Shift=    0.000
 RMSDP=7.89D-09 MaxDP=6.83D-07 DE= 1.91D-11 OVMax= 1.25D-06

 Error on total polarization charges =  0.00460
 SCF Done:  E(RCAM-B3LYP) =  -2108.41702313     A.U. after   13 cycles
            NFock= 13  Conv=0.79D-08     -V/T= 2.0078
 KE= 2.092091730671D+03 PE=-1.370019231669D+04 EE= 5.130434977036D+03
 Leave Link  502 at Mon Feb  3 21:40:49 2025, MaxMem=  5368709120 cpu:      1370.7
 (Enter /home/k0335/k033513/app/g09/l601.exe)
 Copying SCF densities to generalized density rwf, IOpCl= 0 IROHF=0.

 **********************************************************************

            Population analysis using the SCF density.

 **********************************************************************

 Alpha  occ. eigenvalues --  -24.82991 -24.82932 -24.82698 -24.82430 -24.82113
 Alpha  occ. eigenvalues --  -24.81964 -24.81910 -24.81815 -24.81782 -24.81738
 Alpha  occ. eigenvalues --  -19.31189 -19.30146 -19.25140 -19.22258 -14.45903
 Alpha  occ. eigenvalues --  -14.39938 -10.52041 -10.48931 -10.48494 -10.47951
 Alpha  occ. eigenvalues --  -10.47356 -10.44153 -10.42777 -10.40327 -10.30564
 Alpha  occ. eigenvalues --  -10.28605 -10.27992 -10.27624 -10.25584 -10.25491
 Alpha  occ. eigenvalues --  -10.24927 -10.24628 -10.24497 -10.23800  -1.40176
 Alpha  occ. eigenvalues --   -1.38043  -1.37409  -1.37136  -1.35541  -1.33693
 Alpha  occ. eigenvalues --   -1.32353  -1.31411  -1.30758  -1.30485  -1.22256
 Alpha  occ. eigenvalues --   -1.19283  -1.14450  -1.12008  -1.02422  -0.99772
 Alpha  occ. eigenvalues --   -0.97098  -0.90348  -0.88220  -0.88043  -0.86787
 Alpha  occ. eigenvalues --   -0.84403  -0.81705  -0.80312  -0.78472  -0.77015
 Alpha  occ. eigenvalues --   -0.76211  -0.73818  -0.72546  -0.71842  -0.70870
 Alpha  occ. eigenvalues --   -0.70159  -0.69597  -0.68433  -0.67920  -0.67046
 Alpha  occ. eigenvalues --   -0.66789  -0.65992  -0.65460  -0.65040  -0.64456
 Alpha  occ. eigenvalues --   -0.64212  -0.64034  -0.62478  -0.62208  -0.62122
 Alpha  occ. eigenvalues --   -0.58726  -0.57445  -0.57183  -0.56392  -0.55800
 Alpha  occ. eigenvalues --   -0.55710  -0.55243  -0.54886  -0.54616  -0.53962
 Alpha  occ. eigenvalues --   -0.53721  -0.53443  -0.53150  -0.52756  -0.52622
 Alpha  occ. eigenvalues --   -0.52529  -0.52285  -0.52109  -0.51707  -0.51260
 Alpha  occ. eigenvalues --   -0.51140  -0.50711  -0.50367  -0.50237  -0.49754
 Alpha  occ. eigenvalues --   -0.49552  -0.49387  -0.49076  -0.48656  -0.48222
 Alpha  occ. eigenvalues --   -0.47879  -0.47278  -0.45991  -0.45791  -0.45466
 Alpha  occ. eigenvalues --   -0.45205  -0.44398  -0.44060  -0.42737  -0.42657
 Alpha  occ. eigenvalues --   -0.42461  -0.42412  -0.40956  -0.40856  -0.39485
 Alpha  occ. eigenvalues --   -0.39316  -0.38606  -0.38016  -0.37611  -0.37471
 Alpha  occ. eigenvalues --   -0.37016  -0.35100  -0.34118  -0.26996
 Alpha virt. eigenvalues --   -0.00402   0.01833   0.05366   0.08959   0.09594
 Alpha virt. eigenvalues --    0.11143   0.11716   0.12344   0.13007   0.14228
 Alpha virt. eigenvalues --    0.15059   0.15565   0.15898   0.17293   0.17985
 Alpha virt. eigenvalues --    0.18243   0.18603   0.19637   0.19997   0.20638
 Alpha virt. eigenvalues --    0.21032   0.21202   0.21379   0.21839   0.22268
 Alpha virt. eigenvalues --    0.22962   0.23360   0.23446   0.23844   0.24497
 Alpha virt. eigenvalues --    0.24631   0.24952   0.25192   0.25404   0.26181
 Alpha virt. eigenvalues --    0.26511   0.27408   0.27465   0.28197   0.28642
 Alpha virt. eigenvalues --    0.28936   0.29379   0.29876   0.30506   0.30971
 Alpha virt. eigenvalues --    0.31228   0.31641   0.32433   0.33091   0.34118
 Alpha virt. eigenvalues --    0.34155   0.34648   0.35023   0.35525   0.36771
 Alpha virt. eigenvalues --    0.36987   0.37848   0.40100   0.42398   0.43943
 Alpha virt. eigenvalues --    0.48548   0.50378   0.51653   0.52366   0.53734
 Alpha virt. eigenvalues --    0.54427   0.55186   0.55690   0.56329   0.56692
 Alpha virt. eigenvalues --    0.57201   0.57548   0.57977   0.58926   0.59102
 Alpha virt. eigenvalues --    0.59557   0.60365   0.60844   0.61154   0.62128
 Alpha virt. eigenvalues --    0.62272   0.63465   0.63924   0.64262   0.64904
 Alpha virt. eigenvalues --    0.66037   0.66474   0.67762   0.68265   0.68885
 Alpha virt. eigenvalues --    0.69456   0.70823   0.71185   0.71344   0.72212
 Alpha virt. eigenvalues --    0.72512   0.73491   0.73826   0.74298   0.74696
 Alpha virt. eigenvalues --    0.76139   0.76997   0.77596   0.78006   0.78206
 Alpha virt. eigenvalues --    0.79150   0.80398   0.80852   0.81788   0.83948
 Alpha virt. eigenvalues --    0.84308   0.85461   0.86385   0.87083   0.87728
 Alpha virt. eigenvalues --    0.88579   0.89095   0.89928   0.90481   0.90982
 Alpha virt. eigenvalues --    0.91619   0.91725   0.92224   0.92983   0.93376
 Alpha virt. eigenvalues --    0.94206   0.94480   0.95673   0.95869   0.96397
 Alpha virt. eigenvalues --    0.97499   0.97683   0.97797   0.98855   0.99230
 Alpha virt. eigenvalues --    0.99507   1.00076   1.00134   1.00936   1.01201
 Alpha virt. eigenvalues --    1.02267   1.02724   1.03272   1.03956   1.04184
 Alpha virt. eigenvalues --    1.04807   1.05247   1.06037   1.06908   1.07867
 Alpha virt. eigenvalues --    1.09004   1.09446   1.10377   1.11173   1.11834
 Alpha virt. eigenvalues --    1.12187   1.12973   1.13704   1.15344   1.15627
 Alpha virt. eigenvalues --    1.17945   1.18050   1.18678   1.19432   1.20507
 Alpha virt. eigenvalues --    1.20706   1.22249   1.22421   1.23717   1.25118
 Alpha virt. eigenvalues --    1.25769   1.26560   1.27722   1.28593   1.29115
 Alpha virt. eigenvalues --    1.29992   1.32192   1.32712   1.33633   1.34743
 Alpha virt. eigenvalues --    1.35096   1.35374   1.35423   1.35892   1.36557
 Alpha virt. eigenvalues --    1.37465   1.38223   1.38664   1.39647   1.39968
 Alpha virt. eigenvalues --    1.41274   1.41755   1.42340   1.43189   1.43836
 Alpha virt. eigenvalues --    1.44898   1.45472   1.45854   1.47640   1.47961
 Alpha virt. eigenvalues --    1.48194   1.48628   1.48768   1.49715   1.51089
 Alpha virt. eigenvalues --    1.52432   1.52591   1.53417   1.54004   1.54747
 Alpha virt. eigenvalues --    1.56352   1.57210   1.57229   1.57736   1.58202
 Alpha virt. eigenvalues --    1.59559   1.60412   1.61624   1.62498   1.64137
 Alpha virt. eigenvalues --    1.64489   1.64807   1.65815   1.66568   1.67057
 Alpha virt. eigenvalues --    1.68729   1.69687   1.70389   1.70901   1.72089
 Alpha virt. eigenvalues --    1.72767   1.74422   1.75268   1.76092   1.76746
 Alpha virt. eigenvalues --    1.76813   1.77390   1.77651   1.78644   1.78990
 Alpha virt. eigenvalues --    1.79638   1.80108   1.80497   1.81689   1.82539
 Alpha virt. eigenvalues --    1.83244   1.83688   1.84367   1.84894   1.85417
 Alpha virt. eigenvalues --    1.85650   1.86522   1.87205   1.87681   1.87933
 Alpha virt. eigenvalues --    1.88532   1.89253   1.89619   1.90643   1.91388
 Alpha virt. eigenvalues --    1.91932   1.92525   1.92747   1.93150   1.94004
 Alpha virt. eigenvalues --    1.94168   1.94941   1.95170   1.95843   1.96140
 Alpha virt. eigenvalues --    1.96841   1.97304   1.98380   1.99062   1.99658
 Alpha virt. eigenvalues --    2.00167   2.00885   2.01391   2.02094   2.02205
 Alpha virt. eigenvalues --    2.03079   2.03384   2.04301   2.04795   2.05291
 Alpha virt. eigenvalues --    2.06318   2.06819   2.07280   2.07716   2.08271
 Alpha virt. eigenvalues --    2.08705   2.08815   2.09309   2.10227   2.11645
 Alpha virt. eigenvalues --    2.12782   2.12903   2.13253   2.14082   2.14663
 Alpha virt. eigenvalues --    2.14894   2.14990   2.15221   2.15706   2.16141
 Alpha virt. eigenvalues --    2.17442   2.17702   2.18515   2.19218   2.19474
 Alpha virt. eigenvalues --    2.20827   2.21034   2.21527   2.22537   2.23204
 Alpha virt. eigenvalues --    2.24191   2.24715   2.24981   2.25848   2.26298
 Alpha virt. eigenvalues --    2.27206   2.27849   2.29473   2.29625   2.29879
 Alpha virt. eigenvalues --    2.31101   2.31867   2.32611   2.33036   2.33152
 Alpha virt. eigenvalues --    2.33854   2.33967   2.34360   2.35018   2.35996
 Alpha virt. eigenvalues --    2.37136   2.37763   2.38038   2.38801   2.39228
 Alpha virt. eigenvalues --    2.39676   2.40658   2.41524   2.42141   2.42798
 Alpha virt. eigenvalues --    2.43073   2.43421   2.43921   2.45193   2.45576
 Alpha virt. eigenvalues --    2.46762   2.47112   2.47651   2.48487   2.49887
 Alpha virt. eigenvalues --    2.51413   2.53280   2.54305   2.54738   2.55649
 Alpha virt. eigenvalues --    2.56320   2.56884   2.57710   2.59373   2.60199
 Alpha virt. eigenvalues --    2.60537   2.62047   2.63355   2.64735   2.64955
 Alpha virt. eigenvalues --    2.65743   2.67066   2.68543   2.68816   2.69428
 Alpha virt. eigenvalues --    2.71690   2.72186   2.73335   2.74121   2.74685
 Alpha virt. eigenvalues --    2.76330   2.76623   2.76763   2.77577   2.77759
 Alpha virt. eigenvalues --    2.79168   2.79668   2.79753   2.80317   2.81195
 Alpha virt. eigenvalues --    2.82645   2.83008   2.83445   2.84403   2.85526
 Alpha virt. eigenvalues --    2.85903   2.86625   2.87592   2.88617   2.89624
 Alpha virt. eigenvalues --    2.90961   2.91430   2.92769   2.93141   2.94750
 Alpha virt. eigenvalues --    2.94908   2.95625   2.96187   2.96674   2.97032
 Alpha virt. eigenvalues --    2.97716   2.98401   2.98959   2.99260   2.99616
 Alpha virt. eigenvalues --    3.00109   3.00368   3.00822   3.01848   3.02267
 Alpha virt. eigenvalues --    3.04425   3.07056   3.07620   3.08012   3.08957
 Alpha virt. eigenvalues --    3.09408   3.11881   3.12287   3.16336   3.18393
 Alpha virt. eigenvalues --    3.19185   3.21800   3.23879   3.26487   3.26937
 Alpha virt. eigenvalues --    3.27105   3.27746   3.32160   3.34118   3.34462
 Alpha virt. eigenvalues --    3.35356   3.36420   3.37858   3.38816   3.39442
 Alpha virt. eigenvalues --    3.41209   3.42870   3.43976   3.46731   3.47583
 Alpha virt. eigenvalues --    3.48288   3.50781   3.53254   3.53438   3.55977
 Alpha virt. eigenvalues --    3.56636   3.58359   3.61487   3.62537   3.63766
 Alpha virt. eigenvalues --    3.65295   3.67311   4.02852   4.11085   4.15602
 Alpha virt. eigenvalues --    4.23462   4.29814   4.31737   4.37470   4.39507
 Alpha virt. eigenvalues --    4.39980   4.40602   4.49405   4.50209   4.53102
 Alpha virt. eigenvalues --    4.53776   4.58454   4.68639   4.68754   4.70735
 Alpha virt. eigenvalues --    4.75072   4.75467   4.75952   4.81243   4.83003
 Alpha virt. eigenvalues --    4.93374   4.95717   5.09715   5.18686   5.27421
 Alpha virt. eigenvalues --    5.39085   5.68913   5.78488   6.08740   6.61082
 Alpha virt. eigenvalues --    6.89973
          Condensed to atoms (all electrons):
 Mulliken charges:
               1
     1  F   -0.251584
     2  C    0.759721
     3  F   -0.248897
     4  C    0.538610
     5  F   -0.254404
     6  F   -0.257339
     7  C    0.159562
     8  F   -0.295461
     9  C    0.584491
    10  F   -0.245647
    11  C    0.580252
    12  O   -0.482515
    13  O   -0.452859
    14  F   -0.276085
    15  C    0.516317
    16  F   -0.273317
    17  C    0.560704
    18  F   -0.287058
    19  C    0.541805
    20  N   -0.537587
    21  C   -0.056333
    22  C   -0.050643
    23  N   -0.438520
    24  C   -0.032368
    25  C   -0.198970
    26  C   -0.163121
    27  C   -0.320643
    28  C   -0.023236
    29  C   -0.187908
    30  C   -0.184167
    31  C   -0.318742
    32  O   -0.520640
    33  F   -0.258722
    34  O   -0.508315
    35  H    0.359884
    36  H    0.290619
    37  H    0.134701
    38  H    0.121387
    39  H    0.124247
    40  H    0.102349
    41  H    0.072949
    42  H    0.110152
    43  H    0.090699
    44  H    0.094983
    45  H    0.102177
    46  H    0.088439
    47  H    0.111398
    48  H    0.098936
    49  H    0.099352
    50  H    0.072010
    51  H    0.108358
    52  H    0.086144
    53  H    0.106819
    54  H    0.097400
    55  H    0.092983
    56  H    0.104132
    57  H    0.107015
    58  H    0.106484
 Sum of Mulliken charges =   0.00000
 Mulliken charges with hydrogens summed into heavy atoms:
               1
     1  F   -0.251584
     2  C    0.759721
     3  F   -0.248897
     4  C    0.538610
     5  F   -0.254404
     6  F   -0.257339
     7  C    0.159562
     8  F   -0.295461
     9  C    0.584491
    10  F   -0.245647
    11  C    0.580252
    12  O   -0.122631
    13  O   -0.452859
    14  F   -0.276085
    15  C    0.516317
    16  F   -0.273317
    17  C    0.560704
    18  F   -0.287058
    19  C    0.541805
    20  N   -0.246968
    21  C    0.199756
    22  C    0.175952
    23  N   -0.438520
    24  C    0.150733
    25  C   -0.013287
    26  C    0.027495
    27  C   -0.010957
    28  C    0.157132
    29  C    0.005055
    30  C    0.006217
    31  C   -0.001111
    32  O   -0.520640
    33  F   -0.258722
    34  O   -0.508315
 Electronic spatial extent (au):  <R**2>=          25000.1884
 Charge=              0.0000 electrons
 Dipole moment (field-independent basis, Debye):
    X=             -3.5174    Y=              4.5026    Z=              0.5511  Tot=              5.7401
 Quadrupole moment (field-independent basis, Debye-Ang):
   XX=           -213.6307   YY=           -198.5711   ZZ=           -197.8059
   XY=              5.3575   XZ=              0.4114   YZ=             -4.6392
 Traceless Quadrupole moment (field-independent basis, Debye-Ang):
   XX=            -10.2948   YY=              4.7648   ZZ=              5.5300
   XY=              5.3575   XZ=              0.4114   YZ=             -4.6392
 Octapole moment (field-independent basis, Debye-Ang**2):
  XXX=          -1044.6280  YYY=            255.4118  ZZZ=           -160.0010  XYY=           -340.6881
  XXY=            108.2131  XXZ=            -65.5271  XZZ=           -353.4337  YZZ=            103.9797
  YYZ=            -46.3652  XYZ=            -29.1774
 Hexadecapole moment (field-independent basis, Debye-Ang**3):
 XXXX=         -22942.9818 YYYY=          -3751.6013 ZZZZ=          -3122.7432 XXXY=           2379.2923
 XXXZ=          -1470.4377 YYYX=           2360.6148 YYYZ=           -186.5211 ZZZX=          -1378.1804
 ZZZY=           -234.5125 XXYY=          -4411.3573 XXZZ=          -4384.7557 YYZZ=          -1137.8411
 XXYZ=           -156.2505 YYXZ=           -443.7623 ZZXY=            870.5548
 N-N= 4.369248585849D+03 E-N=-1.370019232118D+04  KE= 2.092091730671D+03
 No NMR shielding tensors so no spin-rotation constants.
 Leave Link  601 at Mon Feb  3 21:40:49 2025, MaxMem=  5368709120 cpu:         3.8
 (Enter /home/k0335/k033513/app/g09/l9999.exe)
 1\1\GINC-C15U01N1\SP\RCAM-B3LYP\6-31G(d,p)\C18H24F10N2O4\K033513\03-Fe
 b-2025\0\\#p CAM-B3LYP/6-31G(d,p) SCRF=(PCM,Solvent=Generic,Read) NoSy
 mm out=wfn\\Title DBE0_neu\\0,1\F,0,7.32831,0.102162,1.906052\C,0,6.37
 8333,-0.793418,2.255619\F,0,6.748577,-1.340696,3.429563\C,0,6.126852,-
 1.81517,1.169986\F,0,5.460734,-2.885115,1.658397\F,0,7.253408,-2.27991
 6,0.598802\C,0,5.261452,-1.006391,0.248229\F,0,6.078602,-0.055264,-0.3
 29071\C,0,4.688016,-1.864887,-0.849057\F,0,3.85319,-2.792212,-0.314079
 \C,0,4.02243,-1.060877,-1.967688\O,0,3.501615,0.123921,-1.583708\O,0,3
 .904142,-1.402953,-3.134788\F,0,5.715692,-2.595423,-1.388817\C,0,4.355
 238,-0.296563,1.26714\F,0,4.058524,0.955152,0.810279\C,0,3.041587,-0.9
 54382,1.754549\F,0,2.697212,-0.374144,2.955412\C,0,1.878544,-0.733171,
 0.772815\N,0,1.118009,0.397403,1.021743\C,0,-0.043624,0.736261,0.21711
 7\C,0,-1.301944,-0.042847,0.644537\N,0,-2.53452,0.206451,-0.127332\C,0
 ,-2.430057,-0.371551,-1.479573\C,0,-3.773282,-0.55298,-2.206229\C,0,-4
 .848059,-1.31009,-1.418515\C,0,-4.42952,-2.71443,-1.007956\C,0,-2.9648
 95,1.61493,-0.157775\C,0,-3.226435,2.210394,1.234198\C,0,-3.71783,3.66
 0857,1.186471\C,0,-5.104965,3.817017,0.582258\O,0,1.651341,-1.474283,-
 0.18142\F,0,3.241236,-2.26355,2.050331\O,0,5.180809,-0.051521,2.44381\
 H,0,3.068472,0.461582,-2.399635\H,0,1.230955,0.858384,1.921212\H,0,0.1
 96933,0.536201,-0.831242\H,0,-0.19199,1.813296,0.333612\H,0,-1.083807,
 -1.118293,0.623032\H,0,-1.497028,0.154264,1.70431\H,0,-1.770386,0.2378
 47,-2.109404\H,0,-1.961265,-1.361403,-1.420228\H,0,-4.17574,0.423894,-
 2.500149\H,0,-3.581871,-1.088426,-3.146431\H,0,-5.13655,-0.74047,-0.52
 6745\H,0,-5.746045,-1.383102,-2.04508\H,0,-3.613976,-2.69134,-0.277776
 \H,0,-4.102874,-3.296805,-1.876862\H,0,-5.273616,-3.238227,-0.545822\H
 ,0,-2.237934,2.233935,-0.696877\H,0,-3.90292,1.680229,-0.715821\H,0,-2
 .303569,2.203087,1.825074\H,0,-3.956589,1.593394,1.772223\H,0,-3.74191
 1,4.049222,2.213109\H,0,-3.002402,4.280707,0.630823\H,0,-5.434541,4.85
 6701,0.668081\H,0,-5.834156,3.18669,1.101904\H,0,-5.115908,3.555919,-0
 .479654\\Version=ES64L-G09RevD.01\HF=-2108.4170231\RMSD=7.885e-09\Dipo
 le=-1.3838471,1.7714621,0.2168286\Quadrupole=-7.6539554,3.5425104,4.11
 1445,3.9831823,0.3058519,-3.4491262\PG=C01 [X(C18H24F10N2O4)]\\@

 Writing a WFN file to "cytop/DBE0/DBE0_neu.wfn"


 WHEN ALL ELSE FAILS, TRY THE BOSS'S SUGGESTION.
 Job cpu time:       0 days  0 hours 23 minutes 34.1 seconds.
 File lengths (MBytes):  RWF=    478 Int=      0 D2E=      0 Chk=     16 Scr=      1
 Normal termination of Gaussian 09 at Mon Feb  3 21:40:49 2025.
