 Entering Gaussian System, Link 0=g09
 Initial command:
 /home/k0335/k033513/app/g09/l1.exe "/home/k0335/k033513/app/g09/scratch/Gau-382432.inp" -scrdir="/home/k0335/k033513/app/g09/scratch/"
 Default is to use a total of  36 processors:
                               36 via shared-memory
                                1 via Linda
 Entering Link 1 = /home/k0335/k033513/app/g09/l1.exe PID=    382433.
  
 Copyright (c) 1988,1990,1992,1993,1995,1998,2003,2009,2013,
            Gaussian, Inc.  All Rights Reserved.
  
 This is part of the Gaussian(R) 09 program.  It is based on
 the Gaussian(R) 03 system (copyright 2003, Gaussian, Inc.),
 the Gaussian(R) 98 system (copyright 1998, Gaussian, Inc.),
 the Gaussian(R) 94 system (copyright 1995, Gaussian, Inc.),
 the Gaussian 92(TM) system (copyright 1992, Gaussian, Inc.),
 the Gaussian 90(TM) system (copyright 1990, Gaussian, Inc.),
 the Gaussian 88(TM) system (copyright 1988, Gaussian, Inc.),
 the Gaussian 86(TM) system (copyright 1986, Carnegie Mellon
 University), and the Gaussian 82(TM) system (copyright 1983,
 Carnegie Mellon University). Gaussian is a federally registered
 trademark of Gaussian, Inc.
  
 This software contains proprietary and confidential information,
 including trade secrets, belonging to Gaussian, Inc.
  
 This software is provided under written license and may be
 used, copied, transmitted, or stored only in accord with that
 written license.
  
 The following legend is applicable only to US Government
 contracts under FAR:
  
                    RESTRICTED RIGHTS LEGEND
  
 Use, reproduction and disclosure by the US Government is
 subject to restrictions as set forth in subparagraphs (a)
 and (c) of the Commercial Computer Software - Restricted
 Rights clause in FAR 52.227-19.
  
 Gaussian, Inc.
 340 Quinnipiac St., Bldg. 40, Wallingford CT 06492
  
  
 ---------------------------------------------------------------
 Warning -- This program may not be used in any manner that
 competes with the business of Gaussian, Inc. or will provide
 assistance to any competitor of Gaussian, Inc.  The licensee
 of this program is prohibited from giving any competitor of
 Gaussian, Inc. access to this program.  By using this program,
 the user acknowledges that Gaussian, Inc. is engaged in the
 business of creating and licensing software in the field of
 computational chemistry and represents and warrants to the
 licensee that it is not a competitor of Gaussian, Inc. and that
 it will not use this program in any manner prohibited above.
 ---------------------------------------------------------------
  

 Cite this work as:
 Gaussian 09, Revision D.01,
 M. J. Frisch, G. W. Trucks, H. B. Schlegel, G. E. Scuseria, 
 M. A. Robb, J. R. Cheeseman, G. Scalmani, V. Barone, B. Mennucci, 
 G. A. Petersson, H. Nakatsuji, M. Caricato, X. Li, H. P. Hratchian, 
 A. F. Izmaylov, J. Bloino, G. Zheng, J. L. Sonnenberg, M. Hada, 
 M. Ehara, K. Toyota, R. Fukuda, J. Hasegawa, M. Ishida, T. Nakajima, 
 Y. Honda, O. Kitao, H. Nakai, T. Vreven, J. A. Montgomery, Jr., 
 J. E. Peralta, F. Ogliaro, M. Bearpark, J. J. Heyd, E. Brothers, 
 K. N. Kudin, V. N. Staroverov, T. Keith, R. Kobayashi, J. Normand, 
 K. Raghavachari, A. Rendell, J. C. Burant, S. S. Iyengar, J. Tomasi, 
 M. Cossi, N. Rega, J. M. Millam, M. Klene, J. E. Knox, J. B. Cross, 
 V. Bakken, C. Adamo, J. Jaramillo, R. Gomperts, R. E. Stratmann, 
 O. Yazyev, A. J. Austin, R. Cammi, C. Pomelli, J. W. Ochterski, 
 R. L. Martin, K. Morokuma, V. G. Zakrzewski, G. A. Voth, 
 P. Salvador, J. J. Dannenberg, S. Dapprich, A. D. Daniels, 
 O. Farkas, J. B. Foresman, J. V. Ortiz, J. Cioslowski, 
 and D. J. Fox, Gaussian, Inc., Wallingford CT, 2013.
 
 ******************************************
 Gaussian 09:  ES64L-G09RevD.01 24-Apr-2013
                 3-Mar-2024 
 ******************************************
 %nprocshared=24
 Will use up to   24 processors via shared memory.
 %mem=40GB
 %rwf=A1452355792/A1452355792_0.rwf
 %nosave
 %chk=A1452355792/A1452355792_0.chk
 ----------------------------------------------------------------------
 #p CAM-B3LYP/6-31G(d,p) SCRF=(PCM,Solvent=Generic,Read) NoSymm out=wfn
 ----------------------------------------------------------------------
 1/38=1,40=2/1;
 2/12=2,15=1,17=6,18=5,40=1/2;
 3/5=1,6=6,7=101,11=2,16=1,25=1,30=1,70=2203,72=-2,74=-40/1,2,3;
 4//1;
 5/5=2,38=5/2;
 6/7=2,8=2,9=2,10=2,28=1/1;
 99/5=1,6=100,9=1/99;
 Leave Link    1 at Sun Mar  3 17:37:43 2024, MaxMem=  5368709120 cpu:         1.1
 (Enter /home/k0335/k033513/app/g09/l101.exe)
 -------------------
 Title A1452355792_0
 -------------------
 Symbolic Z-matrix:
 Charge =  0 Multiplicity = 1
 C                     3.72363  -3.37576  -0.57519 
 C                     2.79354  -2.32364   0.00586 
 C                     2.2734   -1.37613  -1.07761 
 N                     1.37983  -0.36044  -0.51972 
 C                     1.93509   0.8214   -0.0744 
 O                     3.15248   1.00633  -0.05064 
 N                     1.03706   1.78364   0.33838 
 C                     1.55528   3.10239   0.70011 
 C                     1.897     3.18298   2.18126 
 C                    -0.31252   1.54447   0.48304 
 O                    -1.09776   2.44665   0.76928 
 N                    -0.73703   0.26042   0.2633 
 C                    -2.14124  -0.06647   0.45305 
 F                    -2.17373  -1.31331   1.02062 
 F                    -2.68751   0.71366   1.43291 
 C                    -3.09744  -0.05149  -0.77833 
 F                    -2.69719  -0.94008  -1.73378 
 O                    -4.47896  -0.35092  -0.51084 
 C                    -4.67538  -1.57854   0.13808 
 F                    -5.94369  -1.97559  -0.08203 
 F                    -4.50809  -1.41006   1.46059 
 F                    -3.84321  -2.52483  -0.3198 
 C                    -3.05671   1.33875  -1.40264 
 F                    -3.47702   2.30239  -0.55767 
 F                    -1.81412   1.66591  -1.8313 
 F                    -3.86201   1.40458  -2.49517 
 C                     0.04441  -0.66869  -0.37483 
 O                    -0.42353  -1.72144  -0.80499 
 H                     4.08338  -4.0419    0.21519 
 H                     3.20745  -3.98489  -1.32406 
 H                     4.59365  -2.91093  -1.04985 
 H                     1.95337  -2.82015   0.50553 
 H                     3.32687  -1.75561   0.77716 
 H                     3.11556  -0.88322  -1.57792 
 H                     1.73853  -1.94701  -1.84588 
 H                     2.44968   3.32288   0.10636 
 H                     0.8127    3.87014   0.45534 
 H                     2.28422   4.17617   2.42839 
 H                     2.65644   2.44214   2.45168 
 H                     1.01355   2.99622   2.8005 
 
 NAtoms=     40 NQM=       40 NQMF=       0 NMMI=      0 NMMIF=      0
                NMic=       0 NMicF=      0.
                    Isotopes and Nuclear Properties:
 (Nuclear quadrupole moments (NQMom) in fm**2, nuclear magnetic moments (NMagM)
  in nuclear magnetons)

  Atom         1           2           3           4           5           6           7           8           9          10
 IAtWgt=          12          12          12          14          12          16          14          12          12          12
 AtmWgt=  12.0000000  12.0000000  12.0000000  14.0030740  12.0000000  15.9949146  14.0030740  12.0000000  12.0000000  12.0000000
 NucSpn=           0           0           0           2           0           0           2           0           0           0
 AtZEff=   0.0000000   0.0000000   0.0000000   0.0000000   0.0000000   0.0000000   0.0000000   0.0000000   0.0000000   0.0000000
 NQMom=    0.0000000   0.0000000   0.0000000   2.0440000   0.0000000   0.0000000   2.0440000   0.0000000   0.0000000   0.0000000
 NMagM=    0.0000000   0.0000000   0.0000000   0.4037610   0.0000000   0.0000000   0.4037610   0.0000000   0.0000000   0.0000000
 AtZNuc=   6.0000000   6.0000000   6.0000000   7.0000000   6.0000000   8.0000000   7.0000000   6.0000000   6.0000000   6.0000000

  Atom        11          12          13          14          15          16          17          18          19          20
 IAtWgt=          16          14          12          19          19          12          19          16          12          19
 AtmWgt=  15.9949146  14.0030740  12.0000000  18.9984033  18.9984033  12.0000000  18.9984033  15.9949146  12.0000000  18.9984033
 NucSpn=           0           2           0           1           1           0           1           0           0           1
 AtZEff=   0.0000000   0.0000000   0.0000000   0.0000000   0.0000000   0.0000000   0.0000000   0.0000000   0.0000000   0.0000000
 NQMom=    0.0000000   2.0440000   0.0000000   0.0000000   0.0000000   0.0000000   0.0000000   0.0000000   0.0000000   0.0000000
 NMagM=    0.0000000   0.4037610   0.0000000   2.6288670   2.6288670   0.0000000   2.6288670   0.0000000   0.0000000   2.6288670
 AtZNuc=   8.0000000   7.0000000   6.0000000   9.0000000   9.0000000   6.0000000   9.0000000   8.0000000   6.0000000   9.0000000

  Atom        21          22          23          24          25          26          27          28          29          30
 IAtWgt=          19          19          12          19          19          19          12          16           1           1
 AtmWgt=  18.9984033  18.9984033  12.0000000  18.9984033  18.9984033  18.9984033  12.0000000  15.9949146   1.0078250   1.0078250
 NucSpn=           1           1           0           1           1           1           0           0           1           1
 AtZEff=   0.0000000   0.0000000   0.0000000   0.0000000   0.0000000   0.0000000   0.0000000   0.0000000   0.0000000   0.0000000
 NQMom=    0.0000000   0.0000000   0.0000000   0.0000000   0.0000000   0.0000000   0.0000000   0.0000000   0.0000000   0.0000000
 NMagM=    2.6288670   2.6288670   0.0000000   2.6288670   2.6288670   2.6288670   0.0000000   0.0000000   2.7928460   2.7928460
 AtZNuc=   9.0000000   9.0000000   6.0000000   9.0000000   9.0000000   9.0000000   6.0000000   8.0000000   1.0000000   1.0000000

  Atom        31          32          33          34          35          36          37          38          39          40
 IAtWgt=           1           1           1           1           1           1           1           1           1           1
 AtmWgt=   1.0078250   1.0078250   1.0078250   1.0078250   1.0078250   1.0078250   1.0078250   1.0078250   1.0078250   1.0078250
 NucSpn=           1           1           1           1           1           1           1           1           1           1
 AtZEff=   0.0000000   0.0000000   0.0000000   0.0000000   0.0000000   0.0000000   0.0000000   0.0000000   0.0000000   0.0000000
 NQMom=    0.0000000   0.0000000   0.0000000   0.0000000   0.0000000   0.0000000   0.0000000   0.0000000   0.0000000   0.0000000
 NMagM=    2.7928460   2.7928460   2.7928460   2.7928460   2.7928460   2.7928460   2.7928460   2.7928460   2.7928460   2.7928460
 AtZNuc=   1.0000000   1.0000000   1.0000000   1.0000000   1.0000000   1.0000000   1.0000000   1.0000000   1.0000000   1.0000000
 Leave Link  101 at Sun Mar  3 17:37:43 2024, MaxMem=  5368709120 cpu:         1.0
 (Enter /home/k0335/k033513/app/g09/l202.exe)
                          Input orientation:                          
 ---------------------------------------------------------------------
 Center     Atomic      Atomic             Coordinates (Angstroms)
 Number     Number       Type             X           Y           Z
 ---------------------------------------------------------------------
      1          6           0        3.723631   -3.375758   -0.575192
      2          6           0        2.793541   -2.323640    0.005863
      3          6           0        2.273395   -1.376127   -1.077612
      4          7           0        1.379831   -0.360437   -0.519717
      5          6           0        1.935089    0.821400   -0.074403
      6          8           0        3.152481    1.006332   -0.050643
      7          7           0        1.037061    1.783640    0.338384
      8          6           0        1.555283    3.102394    0.700110
      9          6           0        1.896996    3.182980    2.181263
     10          6           0       -0.312519    1.544467    0.483042
     11          8           0       -1.097761    2.446645    0.769283
     12          7           0       -0.737025    0.260420    0.263303
     13          6           0       -2.141242   -0.066471    0.453053
     14          9           0       -2.173726   -1.313308    1.020617
     15          9           0       -2.687511    0.713664    1.432909
     16          6           0       -3.097436   -0.051494   -0.778327
     17          9           0       -2.697187   -0.940079   -1.733784
     18          8           0       -4.478958   -0.350916   -0.510837
     19          6           0       -4.675384   -1.578536    0.138083
     20          9           0       -5.943686   -1.975593   -0.082030
     21          9           0       -4.508095   -1.410062    1.460594
     22          9           0       -3.843208   -2.524834   -0.319803
     23          6           0       -3.056708    1.338752   -1.402640
     24          9           0       -3.477022    2.302385   -0.557672
     25          9           0       -1.814120    1.665907   -1.831297
     26          9           0       -3.862010    1.404576   -2.495171
     27          6           0        0.044410   -0.668691   -0.374825
     28          8           0       -0.423530   -1.721444   -0.804992
     29          1           0        4.083382   -4.041895    0.215194
     30          1           0        3.207450   -3.984894   -1.324060
     31          1           0        4.593646   -2.910929   -1.049847
     32          1           0        1.953373   -2.820154    0.505530
     33          1           0        3.326873   -1.755606    0.777157
     34          1           0        3.115557   -0.883218   -1.577921
     35          1           0        1.738527   -1.947014   -1.845876
     36          1           0        2.449683    3.322875    0.106355
     37          1           0        0.812703    3.870138    0.455337
     38          1           0        2.284220    4.176168    2.428389
     39          1           0        2.656441    2.442140    2.451683
     40          1           0        1.013552    2.996215    2.800497
 ---------------------------------------------------------------------
                    Distance matrix (angstroms):
                    1          2          3          4          5
     1  C    0.000000
     2  C    1.519751   0.000000
     3  C    2.520741   1.530441   0.000000
     4  N    3.819507   2.475677   1.463328   0.000000
     5  C    4.589750   3.261082   2.439263   1.379621   0.000000
     6  O    4.450177   3.349738   2.739264   2.287002   1.231587
     7  N    5.888265   4.479458   3.676642   2.334715   1.379403
     8  C    6.949430   5.608664   4.871666   3.675590   2.438659
     9  C    7.345181   5.988240   5.616707   4.485371   3.265967
    10  C    6.451277   4.983730   4.201483   2.738290   2.425966
    11  O    7.678138   6.203278   5.421190   3.959759   3.542796
    12  N    5.815696   4.382755   3.679534   2.340868   2.751170
    13  C    6.812151   5.444894   4.852541   3.664785   4.205116
    14  F    6.448188   5.169549   4.917662   3.988528   4.757984
    15  F    7.865023   6.426788   5.939742   4.637856   4.863335
    16  C    7.590715   6.362485   5.539860   4.495358   5.155944
    17  F    6.964321   5.923572   5.032632   4.293253   5.226312
    18  O    8.742784   7.553003   6.853215   5.858803   6.534891
    19  C    8.618713   7.507163   7.057224   6.211449   7.035851
    20  F    9.780628   8.744598   8.298853   7.512270   8.360522
    21  F    8.704579   7.500984   7.241012   6.300081   6.989296
    22  F    7.618815   6.647780   6.269500   5.657271   6.681783
    23  C    8.299655   7.044318   5.990510   4.832150   5.191330
    24  F    9.170116   7.812659   6.846100   5.539051   5.631857
    25  F    7.593607   6.365704   5.150708   4.003453   4.225688
    26  F    9.169507   8.028146   6.883675   5.873209   6.309245
    27  C    4.572201   3.231331   2.441874   1.378174   2.425962
    28  O    4.470851   3.371894   2.732576   2.277242   3.544418
    29  H    1.094472   2.158682   3.471847   4.626274   5.324534
    30  H    1.094666   2.167898   2.781881   4.138097   5.126500
    31  H    1.094664   2.167905   2.782077   4.136986   4.685050
    32  H    2.147200   1.096392   2.166556   2.725856   3.687489
    33  H    2.147361   1.096358   2.166561   2.723849   3.050111
    34  H    2.754628   2.164921   1.096588   2.099009   2.561209
    35  H    2.756190   2.164218   1.096460   2.098711   3.292548
    36  H    6.852673   5.657868   4.849070   3.886301   2.560246
    37  H    7.876452   6.518330   5.657460   4.378371   3.291683
    38  H    8.253786   6.955253   6.566593   5.485438   4.200039
    39  H    6.644457   5.358497   5.213618   4.279415   3.086788
    40  H    7.703366   6.267312   5.978654   4.735514   3.720766
                    6          7          8          9         10
     6  O    0.000000
     7  N    2.287040   0.000000
     8  C    2.740100   1.462365   0.000000
     9  C    3.360869   2.468571   1.522194   0.000000
    10  C    3.546919   1.378222   2.441913   3.232744   0.000000
    11  O    4.561944   2.276558   2.733758   3.391820   1.229823
    12  N    3.972808   2.339491   3.677267   4.376985   1.370134
    13  C    5.424769   3.679357   4.875145   5.463791   2.437262
    14  F    5.907352   4.512835   5.788494   6.175312   3.452529
    15  F    6.032585   4.026819   4.923853   5.260728   2.689436
    16  C    6.380437   4.659273   5.812106   6.645701   3.448754
    17  F    6.390626   5.065287   6.352081   7.309838   4.095599
    18  O    7.764841   5.975280   7.057181   7.771011   4.683961
    19  C    8.245764   6.631469   7.813334   8.369158   5.376498
    20  F    9.572519   7.939736   9.090227   9.654515   6.664846
    21  F    8.173568   6.496756   7.596390   7.914581   5.223764
    22  F    7.840998   6.543178   7.864453   8.472568   5.446975
    23  C    6.363366   4.470798   5.366792   6.386292   3.335969
    24  F    6.774005   4.631302   5.248440   6.095677   3.416373
    25  F    5.317226   3.584775   4.452459   5.672260   2.761470
    26  F    7.438911   5.672179   6.514558   7.628755   4.635538
    27  C    3.545547   2.740064   4.202298   4.980063   2.400292
    28  O    4.560445   3.965633   5.426827   6.193217   3.512482
    29  H    5.140218   6.575113   7.593898   7.800290   7.113588
    30  H    5.151403   6.383596   7.553580   8.085975   6.799238
    31  H    4.291888   6.051071   6.960895   7.405925   6.802261
    32  H    4.048356   4.697072   5.939100   6.232887   4.917793
    33  H    2.888593   4.238163   5.171521   5.329699   4.921601
    34  H    2.429885   3.886451   4.848606   5.670125   4.678988
    35  H    3.734217   4.379592   5.657928   6.523787   4.671305
    36  H    2.425891   2.102043   1.095951   2.151808   3.306719
    37  H    3.732554   2.101782   1.095796   2.150976   2.583726
    38  H    4.116714   3.412875   2.161316   1.094274   4.177712
    39  H    2.927326   2.742635   2.171749   1.094864   3.673702
    40  H    4.082114   2.744611   2.171721   1.094900   3.039183
                   11         12         13         14         15
    11  O    0.000000
    12  N    2.272823   0.000000
    13  C    2.739454   1.454197   0.000000
    14  F    3.918943   2.261472   1.370324   0.000000
    15  F    2.443548   2.319009   1.366433   2.131332   0.000000
    16  C    3.554504   2.598812   1.559111   2.383614   2.375515
    17  F    4.504820   3.044961   2.419612   2.828434   3.572521
    18  O    4.571384   3.869766   2.544584   2.930127   2.849695
    19  C    5.422166   4.348346   2.967730   2.665990   3.298847
    20  F    6.615430   5.677000   4.288314   3.983347   4.486627
    21  F    5.194466   4.294762   2.902132   2.377440   2.797410
    22  F    5.782663   4.212603   3.088291   2.460019   3.859469
    23  C    3.127643   3.052719   2.501265   3.699359   2.927009
    24  F    2.728095   3.514428   2.901267   4.154854   2.666416
    25  F    2.808156   2.742786   2.885550   4.139861   3.510644
    26  F    4.402686   4.322476   3.717129   4.753731   4.157718
    27  C    3.509823   1.371530   2.413530   2.698688   3.555587
    28  O    4.506206   2.273174   2.696692   2.561759   4.007937
    29  H    8.321803   6.461312   7.389622   6.873521   8.363203
    30  H    8.017582   6.008435   6.864450   6.449181   8.026699
    31  H    8.025269   6.340179   7.463804   7.255104   8.503940
    32  H    6.092467   4.097176   4.934713   4.423669   5.906412
    33  H    6.102160   4.565487   5.732234   5.523721   6.534533
    34  H    5.860836   4.420453   5.694371   5.908798   6.729839
    35  H    5.847036   3.930618   4.886115   4.891226   6.117144
    36  H    3.713706   4.422485   5.717032   6.611050   5.912570
    37  H    2.403075   3.933014   4.921655   6.008861   4.813572
    38  H    4.145079   5.398944   6.441013   7.210371   6.139872
    39  H    4.113942   4.589610   5.771084   6.283459   5.708183
    40  H    2.980856   4.121462   4.984302   5.647894   4.558311
                   16         17         18         19         20
    16  C    0.000000
    17  F    1.364801   0.000000
    18  O    1.438683   2.239960   0.000000
    19  C    2.379408   2.797280   1.402402   0.000000
    20  F    3.505442   3.786864   2.229098   1.347106   0.000000
    21  F    2.974632   3.701935   2.238120   1.343653   2.181842
    22  F    2.623706   2.413329   2.273014   1.340767   2.184081
    23  C    1.524536   2.330661   2.381824   3.674848   4.589503
    24  F    2.394477   3.536235   2.836560   4.120885   4.961024
    25  F    2.388538   2.753267   3.593404   4.753073   5.777004
    26  F    2.377450   2.726523   2.720286   4.061350   4.645661
    27  C    3.227219   3.071933   4.536556   4.833978   6.136042
    28  O    3.152652   2.577344   4.290847   4.357531   5.573095
    29  H    8.274934   7.706873   9.352225   9.098905  10.242072
    30  H    7.451245   6.656088   8.540960   8.370633   9.451096
    31  H    8.209923   7.583420   9.442264   9.439352  10.622942
    32  H    5.901223   5.493352   6.964555   6.754040   7.963796
    33  H    6.826073   6.577173   8.035115   8.029688   9.312887
    34  H    6.319209   5.815111   7.687566   8.007927   9.246667
    35  H    5.302754   4.549950   6.556446   6.723847   7.882155
    36  H    6.552828   6.931750   7.866621   8.648203   9.927633
    37  H    5.673651   6.344270   6.837577   7.740013   8.950426
    38  H    7.557670   8.265233   8.652983   9.316556  10.575670
    39  H    7.053955   7.590710   8.215327   8.676073   9.994911
    40  H    6.244736   7.058590   7.234354   7.770508   9.023913
                   21         22         23         24         25
    21  F    0.000000
    22  F    2.203317   0.000000
    23  C    4.226182   4.088816   0.000000
    24  F    4.349571   4.846929   1.348786   0.000000
    25  F    5.249346   4.895316   1.354549   2.189171   0.000000
    26  F    4.897723   4.491419   1.358848   2.169834   2.168612
    27  C    4.964242   4.308349   3.834470   4.610988   3.320511
    28  O    4.681187   3.546130   4.081128   5.057290   3.802787
    29  H    9.071441   8.088172   9.085683   9.899844   8.458585
    30  H    8.597307   7.269944   8.221135   9.208659   7.576609
    31  H    9.560157   8.477178   8.758548   9.620632   7.913126
    32  H    6.682146   5.862486   6.785169   7.540557   6.307100
    33  H    7.872307   7.294182   7.421366   8.033806   6.703774
    34  H    8.223759   7.259626   6.562372   7.392636   5.555534
    35  H    7.088113   5.815371   5.829837   6.849731   5.067022
    36  H    8.523223   8.601034   6.044349   6.050468   4.967902
    37  H    7.563197   7.948208   4.983205   4.678224   4.121593
    38  H    8.847493   9.486905   7.159136   6.754223   6.422050
    39  H    8.194650   8.636979   6.979494   6.833383   6.239581
    40  H    7.190216   7.987889   6.081164   5.650129   5.587393
                   26         27         28         29         30
    26  F    0.000000
    27  C    4.904531   0.000000
    28  O    4.944881   1.229756   0.000000
    29  H   10.006967   5.295274   5.170834   0.000000
    30  H    8.966334   4.680072   4.310064   1.771951   0.000000
    31  H    9.602638   5.116526   5.162062   1.771943   1.774861
    32  H    7.789174   3.007982   2.928190   2.472627   2.505340
    33  H    8.507345   3.644586   4.070612   2.472898   3.065795
    34  H    7.400121   3.305360   3.718223   3.758881   3.113404
    35  H    6.559021   2.582273   2.410148   3.759638   2.565732
    36  H    7.091211   4.685026   5.876314   7.544578   7.484904
    37  H    6.052887   4.677650   5.863658   8.564769   8.402535
    38  H    8.348611   6.028882   7.250413   8.698953   9.029738
    39  H    8.248522   4.948649   6.117809   7.005766   7.474397
    40  H    7.372145   4.945042   6.109097   8.102015   8.400062
                   31         32         33         34         35
    31  H    0.000000
    32  H    3.065694   0.000000
    33  H    2.505480   1.758848   0.000000
    34  H    2.564219   3.072973   2.520339   0.000000
    35  H    3.116809   2.517467   3.072423   1.760589   0.000000
    36  H    6.692809   6.175959   5.197154   4.579453   5.664687
    37  H    7.908475   6.787021   6.170382   5.659653   6.323922
    38  H    8.225480   7.263289   6.244969   6.506845   7.487355
    39  H    6.683474   5.654516   4.568872   5.244664   6.210978
    40  H    7.908007   6.322997   5.659078   6.216025   6.822748
                   36         37         38         39         40
    36  H    0.000000
    37  H    1.760962   0.000000
    38  H    2.479381   2.480313   0.000000
    39  H    2.513763   3.069845   1.773681   0.000000
    40  H    3.070436   2.510748   1.773514   1.768546   0.000000
 Symmetry turned off by external request.
 Stoichiometry    C12H12F9N3O4
 Framework group  C1[X(C12H12F9N3O4)]
 Deg. of freedom   114
 Full point group                 C1      NOp   1
 Rotational constants (GHZ):      0.2757367      0.1363174      0.1111907
 Leave Link  202 at Sun Mar  3 17:37:43 2024, MaxMem=  5368709120 cpu:         0.1
 (Enter /home/k0335/k033513/app/g09/l301.exe)
 Standard basis: 6-31G(d,p) (6D, 7F)
 Ernie: Thresh=  0.10000D-02 Tol=  0.10000D-05 Strict=F.
   480 basis functions,   868 primitive gaussians,   480 cartesian basis functions
   109 alpha electrons      109 beta electrons
       nuclear repulsion energy      3353.4948893143 Hartrees.
 IExCor=20419 DFT=T Ex+Corr=CAM-B3LYP ExCW=0 ScaHFX=  1.000000
 ScaDFX=  1.000000  1.000000  1.000000  0.810000 ScalE2=  1.000000  1.000000
 IRadAn=      0 IRanWt=     -1 IRanGd=            0 ICorTp=0 IEmpDi=  4
  HFx wShort=  0.000000 wLong=  0.330000 cFull=  0.190000 cShort=  0.000000 cLong=  0.460000
  DFx wShort=  0.000000 wLong=  0.330000 cFull=  0.190000 cShort=  0.000000 cLong=  0.460000
 NAtoms=   40 NActive=   40 NUniq=   40 SFac= 1.00D+00 NAtFMM=   60 NAOKFM=F Big=F
 Integral buffers will be    131072 words long.
 Raffenetti 2 integral format.
 Two-electron integral symmetry is turned off.
 Using the following non-standard input for PCM:
 eps=4.9
 --- end of non-standard input.
 ------------------------------------------------------------------------------
 Polarizable Continuum Model (PCM)
 =================================
 Model                : PCM (using non-symmetric T matrix).
 Atomic radii         : UFF (Universal Force Field).
 Polarization charges : Total charges.
 Charge compensation  : None.
 Solution method      : On-the-fly selection.
 Cavity type          : Scaled VdW (van der Waals Surface) (Alpha=1.100).
 Cavity algorithm     : GePol (No added spheres)
                        Default sphere list used, NSphG=   40.
                        Lebedev-Laikov grids with approx.  5.0 points / Ang**2.
                        Smoothing algorithm: Karplus/York (Gamma=1.0000).
                        Polarization charges: spherical gaussians, with
                                              point-specific exponents (IZeta= 3).
                        Self-potential: point-specific (ISelfS= 7).
                        Self-field    : sphere-specific E.n sum rule (ISelfD= 2).
 Solvent              : Generic,
                        Eps                           =   4.900000
                        Eps(infinity)                 =   0.000000
                        RSolv                         =   0.000000 Ang.
                        Molar volume                  =   0.000000 cm**3/mol
                        Thermal expansion coefficient =   0.000000 K**-1
                        Absolute temperature          = 298.150000 K
                        Numeral density               =   0.000000 Ang**-3
                        Hydrogen bond acidity         =   0.000000
                        Hydrogen bond basicity        =   0.000000
                        Surface tension at interface  =   0.000000 (cal/mol)*Ang**-2
                        Carbon aromaticity            =   0.000000
                        Electronegative halogenicity  =   0.000000
 ------------------------------------------------------------------------------
 GePol: Number of generator spheres                  =      40
 GePol: Total number of spheres                      =      40
 GePol: Number of exposed spheres                    =      40 (100.00%)
 GePol: Number of points                             =    3055
 GePol: Average weight of points                     =       0.13
 GePol: Minimum weight of points                     =   0.14D-09
 GePol: Maximum weight of points                     =    0.20577
 GePol: Number of points with low weight             =     149
 GePol: Fraction of low-weight points (<1% of avg)   =       4.88%
 GePol: Cavity surface area                          =    388.304 Ang**2
 GePol: Cavity volume                                =    437.438 Ang**3
 Leave Link  301 at Sun Mar  3 17:37:43 2024, MaxMem=  5368709120 cpu:         0.9
 (Enter /home/k0335/k033513/app/g09/l302.exe)
 NPDir=0 NMtPBC=     1 NCelOv=     1 NCel=       1 NClECP=     1 NCelD=      1
         NCelK=      1 NCelE2=     1 NClLst=     1 CellRange=     0.0.
 One-electron integrals computed using PRISM.
 NBasis=   480 RedAO= T EigKep=  1.25D-03  NBF=   480
 NBsUse=   480 1.00D-06 EigRej= -1.00D+00 NBFU=   480
 Precomputing XC quadrature grid using
 IXCGrd= 4 IRadAn=           0 IRanWt=          -1 IRanGd=           0 AccXCQ= 0.00D+00.
 Generated NRdTot=       0 NPtTot=           0 NUsed=           0 NTot=          32
 NSgBfM=   472   472   472   473   473 MxSgAt=    40 MxSgA2=    40.
 Leave Link  302 at Sun Mar  3 17:37:43 2024, MaxMem=  5368709120 cpu:         9.5
 (Enter /home/k0335/k033513/app/g09/l303.exe)
 DipDrv:  MaxL=1.
 Leave Link  303 at Sun Mar  3 17:37:44 2024, MaxMem=  5368709120 cpu:         0.8
 (Enter /home/k0335/k033513/app/g09/l401.exe)
 ExpMin= 1.61D-01 ExpMax= 7.00D+03 ExpMxC= 1.05D+03 IAcc=1 IRadAn=         1 AccDes= 0.00D+00
 Harris functional with IExCor=20419 and IRadAn=       1 diagonalized for initial guess.
 HarFok:  IExCor=20419 AccDes= 0.00D+00 IRadAn=         1 IDoV= 1 UseB2=F ITyADJ=14
 ICtDFT=  3500011 ScaDFX=  1.000000  1.000000  1.000000  1.000000
 FoFCou: FMM=F IPFlag=           0 FMFlag=      100000 FMFlg1=           0
         NFxFlg=           0 DoJE=T BraDBF=F KetDBF=T FulRan=T
         wScrn=  0.000000 ICntrl=     500 IOpCl=  0 I1Cent=   200000004 NGrid=           0
         NMat0=    1 NMatS0=      1 NMatT0=    0 NMatD0=    1 NMtDS0=    0 NMtDT0=    0
 Symmetry not used in FoFCou.
 Harris En= -1769.67100959750    
 JPrj=0 DoOrth=F DoCkMO=F.
 Leave Link  401 at Sun Mar  3 17:37:44 2024, MaxMem=  5368709120 cpu:         9.9
 (Enter /home/k0335/k033513/app/g09/l502.exe)
 Closed shell SCF:
 Using DIIS extrapolation, IDIIS=  1040.
 Two-electron integral symmetry not used.
 IVT=      724230 IEndB=      724230 NGot=  5368709120 MDV=  5368232411
 LenX=  5368232411 LenY=  5368001531
 Requested convergence on RMS density matrix=1.00D-08 within 128 cycles.
 Requested convergence on MAX density matrix=1.00D-06.
 Requested convergence on             energy=1.00D-06.
 No special actions if energy rises.
 Fock matrices will be formed incrementally for  20 cycles.

 Cycle   1  Pass 1  IDiag  1:
 FoFJK:  IHMeth= 1 ICntrl=       0 DoSepK=T KAlg= 0 I1Cent=   0 FoldK=F
 IRaf=         1 NMat=   1 IRICut=       1 DoRegI=T DoRafI=F ISym2E= 0.
 FoFCou: FMM=F IPFlag=           0 FMFlag=      100000 FMFlg1=           0
         NFxFlg=           0 DoJE=T BraDBF=F KetDBF=F FulRan=T
         wScrn=  0.000000 ICntrl=     500 IOpCl=  0 I1Cent=           0 NGrid=           0
         NMat0=    1 NMatS0=      1 NMatT0=    0 NMatD0=    1 NMtDS0=    0 NMtDT0=    0
 Symmetry not used in FoFCou.
 Inv3:  Mode=1 IEnd=    27999075.
 Iteration    1 A*A^-1 deviation from unit magnitude is 6.00D-15 for   3016.
 Iteration    1 A*A^-1 deviation from orthogonality  is 3.61D-15 for   3033    645.
 Iteration    1 A^-1*A deviation from unit magnitude is 6.88D-15 for   3016.
 Iteration    1 A^-1*A deviation from orthogonality  is 1.23D-12 for   2989   2987.
 E= -1827.08369447108    
 DIIS: error= 5.31D-02 at cycle   1 NSaved=   1.
 NSaved= 1 IEnMin= 1 EnMin= -1827.08369447108     IErMin= 1 ErrMin= 5.31D-02
 ErrMax= 5.31D-02  0.00D+00 EMaxC= 1.00D-01 BMatC= 1.52D+00 BMatP= 1.52D+00
 IDIUse=3 WtCom= 4.69D-01 WtEn= 5.31D-01
 Coeff-Com:  0.100D+01
 Coeff-En:   0.100D+01
 Coeff:      0.100D+01
 Gap=     0.464 Goal=   None    Shift=    0.000
 GapD=    0.464 DampG=2.000 DampE=0.500 DampFc=1.0000 IDamp=-1.
 RMSDP=3.29D-03 MaxDP=1.36D-01              OVMax= 1.91D-01

 Cycle   2  Pass 1  IDiag  1:
 RMSU=  3.29D-03    CP:  1.00D+00
 E= -1827.24966437232     Delta-E=       -0.165969901236 Rises=F Damp=F
 DIIS: error= 2.44D-02 at cycle   2 NSaved=   2.
 NSaved= 2 IEnMin= 2 EnMin= -1827.24966437232     IErMin= 2 ErrMin= 2.44D-02
 ErrMax= 2.44D-02  0.00D+00 EMaxC= 1.00D-01 BMatC= 6.42D-01 BMatP= 1.52D+00
 IDIUse=3 WtCom= 7.56D-01 WtEn= 2.44D-01
 Coeff-Com:  0.371D+00 0.629D+00
 Coeff-En:   0.403D+00 0.597D+00
 Coeff:      0.379D+00 0.621D+00
 Gap=     0.439 Goal=   None    Shift=    0.000
 RMSDP=1.88D-03 MaxDP=1.25D-01 DE=-1.66D-01 OVMax= 1.31D-01

 Cycle   3  Pass 1  IDiag  1:
 RMSU=  1.15D-03    CP:  1.00D+00  5.50D-01
 E= -1827.56677145663     Delta-E=       -0.317107084313 Rises=F Damp=F
 DIIS: error= 1.08D-02 at cycle   3 NSaved=   3.
 NSaved= 3 IEnMin= 3 EnMin= -1827.56677145663     IErMin= 3 ErrMin= 1.08D-02
 ErrMax= 1.08D-02  0.00D+00 EMaxC= 1.00D-01 BMatC= 1.77D-01 BMatP= 6.42D-01
 IDIUse=3 WtCom= 8.92D-01 WtEn= 1.08D-01
 Coeff-Com:  0.108D+00 0.353D+00 0.539D+00
 Coeff-En:   0.000D+00 0.218D+00 0.782D+00
 Coeff:      0.962D-01 0.338D+00 0.566D+00
 Gap=     0.378 Goal=   None    Shift=    0.000
 RMSDP=8.56D-04 MaxDP=6.29D-02 DE=-3.17D-01 OVMax= 8.72D-02

 Cycle   4  Pass 1  IDiag  1:
 RMSU=  3.75D-04    CP:  1.00D+00  6.74D-01  4.34D-01
 E= -1827.68396447954     Delta-E=       -0.117193022908 Rises=F Damp=F
 DIIS: error= 3.34D-03 at cycle   4 NSaved=   4.
 NSaved= 4 IEnMin= 4 EnMin= -1827.68396447954     IErMin= 4 ErrMin= 3.34D-03
 ErrMax= 3.34D-03  0.00D+00 EMaxC= 1.00D-01 BMatC= 1.65D-02 BMatP= 1.77D-01
 IDIUse=3 WtCom= 9.67D-01 WtEn= 3.34D-02
 Coeff-Com:  0.648D-02 0.946D-01 0.289D+00 0.610D+00
 Coeff-En:   0.000D+00 0.000D+00 0.374D-01 0.963D+00
 Coeff:      0.626D-02 0.914D-01 0.280D+00 0.622D+00
 Gap=     0.366 Goal=   None    Shift=    0.000
 RMSDP=2.43D-04 MaxDP=1.63D-02 DE=-1.17D-01 OVMax= 1.85D-02

 Cycle   5  Pass 1  IDiag  1:
 RMSU=  1.02D-04    CP:  1.00D+00  6.66D-01  5.90D-01  6.72D-01
 E= -1827.69498134016     Delta-E=       -0.011016860619 Rises=F Damp=F
 DIIS: error= 7.36D-04 at cycle   5 NSaved=   5.
 NSaved= 5 IEnMin= 5 EnMin= -1827.69498134016     IErMin= 5 ErrMin= 7.36D-04
 ErrMax= 7.36D-04  0.00D+00 EMaxC= 1.00D-01 BMatC= 8.05D-04 BMatP= 1.65D-02
 IDIUse=3 WtCom= 9.93D-01 WtEn= 7.36D-03
 Coeff-Com: -0.148D-02 0.277D-01 0.110D+00 0.314D+00 0.550D+00
 Coeff-En:   0.000D+00 0.000D+00 0.000D+00 0.000D+00 0.100D+01
 Coeff:     -0.147D-02 0.275D-01 0.109D+00 0.311D+00 0.553D+00
 Gap=     0.361 Goal=   None    Shift=    0.000
 RMSDP=4.98D-05 MaxDP=2.52D-03 DE=-1.10D-02 OVMax= 3.73D-03

 Cycle   6  Pass 1  IDiag  1:
 RMSU=  2.88D-05    CP:  1.00D+00  6.70D-01  5.82D-01  7.07D-01  6.64D-01
 E= -1827.69555224767     Delta-E=       -0.000570907515 Rises=F Damp=F
 DIIS: error= 1.33D-04 at cycle   6 NSaved=   6.
 NSaved= 6 IEnMin= 6 EnMin= -1827.69555224767     IErMin= 6 ErrMin= 1.33D-04
 ErrMax= 1.33D-04  0.00D+00 EMaxC= 1.00D-01 BMatC= 2.83D-05 BMatP= 8.05D-04
 IDIUse=3 WtCom= 9.99D-01 WtEn= 1.33D-03
 Coeff-Com: -0.895D-03-0.584D-03 0.609D-02 0.362D-01 0.183D+00 0.776D+00
 Coeff-En:   0.000D+00 0.000D+00 0.000D+00 0.000D+00 0.000D+00 0.100D+01
 Coeff:     -0.894D-03-0.584D-03 0.608D-02 0.362D-01 0.183D+00 0.777D+00
 Gap=     0.362 Goal=   None    Shift=    0.000
 RMSDP=1.35D-05 MaxDP=7.33D-04 DE=-5.71D-04 OVMax= 8.10D-04

 Cycle   7  Pass 1  IDiag  1:
 RMSU=  9.29D-06    CP:  1.00D+00  6.69D-01  5.85D-01  7.21D-01  7.29D-01
                    CP:  9.20D-01
 E= -1827.69557404366     Delta-E=       -0.000021795989 Rises=F Damp=F
 DIIS: error= 6.08D-05 at cycle   7 NSaved=   7.
 NSaved= 7 IEnMin= 7 EnMin= -1827.69557404366     IErMin= 7 ErrMin= 6.08D-05
 ErrMax= 6.08D-05  0.00D+00 EMaxC= 1.00D-01 BMatC= 4.34D-06 BMatP= 2.83D-05
 IDIUse=1 WtCom= 1.00D+00 WtEn= 0.00D+00
 Coeff-Com: -0.142D-03-0.308D-02-0.820D-02-0.153D-01 0.293D-01 0.343D+00
 Coeff-Com:  0.654D+00
 Coeff:     -0.142D-03-0.308D-02-0.820D-02-0.153D-01 0.293D-01 0.343D+00
 Coeff:      0.654D+00
 Gap=     0.362 Goal=   None    Shift=    0.000
 RMSDP=4.31D-06 MaxDP=2.19D-04 DE=-2.18D-05 OVMax= 3.30D-04

 Cycle   8  Pass 1  IDiag  1:
 RMSU=  2.58D-06    CP:  1.00D+00  6.69D-01  5.85D-01  7.20D-01  7.45D-01
                    CP:  1.00D+00  8.14D-01
 E= -1827.69557806780     Delta-E=       -0.000004024134 Rises=F Damp=F
 DIIS: error= 8.71D-06 at cycle   8 NSaved=   8.
 NSaved= 8 IEnMin= 8 EnMin= -1827.69557806780     IErMin= 8 ErrMin= 8.71D-06
 ErrMax= 8.71D-06  0.00D+00 EMaxC= 1.00D-01 BMatC= 1.59D-07 BMatP= 4.34D-06
 IDIUse=1 WtCom= 1.00D+00 WtEn= 0.00D+00
 Coeff-Com:  0.100D-04-0.842D-03-0.254D-02-0.700D-02-0.566D-02 0.288D-01
 Coeff-Com:  0.152D+00 0.836D+00
 Coeff:      0.100D-04-0.842D-03-0.254D-02-0.700D-02-0.566D-02 0.288D-01
 Coeff:      0.152D+00 0.836D+00
 Gap=     0.362 Goal=   None    Shift=    0.000
 RMSDP=1.38D-06 MaxDP=1.02D-04 DE=-4.02D-06 OVMax= 1.49D-04

 Cycle   9  Pass 1  IDiag  1:
 RMSU=  8.69D-07    CP:  1.00D+00  6.69D-01  5.86D-01  7.20D-01  7.49D-01
                    CP:  1.02D+00  8.81D-01  1.11D+00
 E= -1827.69557825325     Delta-E=       -0.000000185455 Rises=F Damp=F
 DIIS: error= 5.82D-06 at cycle   9 NSaved=   9.
 NSaved= 9 IEnMin= 9 EnMin= -1827.69557825325     IErMin= 9 ErrMin= 5.82D-06
 ErrMax= 5.82D-06  0.00D+00 EMaxC= 1.00D-01 BMatC= 4.45D-08 BMatP= 1.59D-07
 IDIUse=1 WtCom= 1.00D+00 WtEn= 0.00D+00
 Coeff-Com:  0.217D-04 0.106D-03 0.239D-03-0.766D-03-0.712D-02-0.428D-01
 Coeff-Com: -0.344D-01 0.386D+00 0.698D+00
 Coeff:      0.217D-04 0.106D-03 0.239D-03-0.766D-03-0.712D-02-0.428D-01
 Coeff:     -0.344D-01 0.386D+00 0.698D+00
 Gap=     0.362 Goal=   None    Shift=    0.000
 RMSDP=5.69D-07 MaxDP=4.10D-05 DE=-1.85D-07 OVMax= 5.84D-05

 Cycle  10  Pass 1  IDiag  1:
 RMSU=  3.12D-07    CP:  1.00D+00  6.69D-01  5.86D-01  7.20D-01  7.50D-01
                    CP:  1.03D+00  9.02D-01  1.22D+00  9.17D-01
 E= -1827.69557829407     Delta-E=       -0.000000040816 Rises=F Damp=F
 DIIS: error= 1.25D-06 at cycle  10 NSaved=  10.
 NSaved=10 IEnMin=10 EnMin= -1827.69557829407     IErMin=10 ErrMin= 1.25D-06
 ErrMax= 1.25D-06  0.00D+00 EMaxC= 1.00D-01 BMatC= 2.44D-09 BMatP= 4.45D-08
 IDIUse=1 WtCom= 1.00D+00 WtEn= 0.00D+00
 Coeff-Com:  0.664D-05 0.105D-03 0.312D-03 0.322D-03-0.155D-02-0.158D-01
 Coeff-Com: -0.232D-01 0.542D-01 0.226D+00 0.759D+00
 Coeff:      0.664D-05 0.105D-03 0.312D-03 0.322D-03-0.155D-02-0.158D-01
 Coeff:     -0.232D-01 0.542D-01 0.226D+00 0.759D+00
 Gap=     0.362 Goal=   None    Shift=    0.000
 RMSDP=1.58D-07 MaxDP=1.23D-05 DE=-4.08D-08 OVMax= 1.70D-05

 Cycle  11  Pass 1  IDiag  1:
 RMSU=  1.01D-07    CP:  1.00D+00  6.69D-01  5.86D-01  7.20D-01  7.51D-01
                    CP:  1.03D+00  9.08D-01  1.25D+00  9.86D-01  9.62D-01
 E= -1827.69557829627     Delta-E=       -0.000000002197 Rises=F Damp=F
 DIIS: error= 6.10D-07 at cycle  11 NSaved=  11.
 NSaved=11 IEnMin=11 EnMin= -1827.69557829627     IErMin=11 ErrMin= 6.10D-07
 ErrMax= 6.10D-07  0.00D+00 EMaxC= 1.00D-01 BMatC= 4.65D-10 BMatP= 2.44D-09
 IDIUse=1 WtCom= 1.00D+00 WtEn= 0.00D+00
 Coeff-Com:  0.145D-05 0.407D-04 0.135D-03 0.215D-03-0.276D-04-0.374D-02
 Coeff-Com: -0.802D-02-0.940D-02 0.414D-01 0.347D+00 0.632D+00
 Coeff:      0.145D-05 0.407D-04 0.135D-03 0.215D-03-0.276D-04-0.374D-02
 Coeff:     -0.802D-02-0.940D-02 0.414D-01 0.347D+00 0.632D+00
 Gap=     0.362 Goal=   None    Shift=    0.000
 RMSDP=5.32D-08 MaxDP=4.28D-06 DE=-2.20D-09 OVMax= 5.48D-06

 Cycle  12  Pass 1  IDiag  1:
 RMSU=  3.41D-08    CP:  1.00D+00  6.69D-01  5.86D-01  7.20D-01  7.51D-01
                    CP:  1.03D+00  9.08D-01  1.26D+00  1.00D+00  1.04D+00
                    CP:  8.52D-01
 E= -1827.69557829657     Delta-E=       -0.000000000306 Rises=F Damp=F
 DIIS: error= 2.62D-07 at cycle  12 NSaved=  12.
 NSaved=12 IEnMin=12 EnMin= -1827.69557829657     IErMin=12 ErrMin= 2.62D-07
 ErrMax= 2.62D-07  0.00D+00 EMaxC= 1.00D-01 BMatC= 6.67D-11 BMatP= 4.65D-10
 IDIUse=1 WtCom= 1.00D+00 WtEn= 0.00D+00
 Coeff-Com: -0.340D-06 0.308D-05 0.200D-04 0.526D-04 0.284D-03 0.764D-03
 Coeff-Com: -0.344D-04-0.127D-01-0.168D-01 0.372D-01 0.285D+00 0.707D+00
 Coeff:     -0.340D-06 0.308D-05 0.200D-04 0.526D-04 0.284D-03 0.764D-03
 Coeff:     -0.344D-04-0.127D-01-0.168D-01 0.372D-01 0.285D+00 0.707D+00
 Gap=     0.362 Goal=   None    Shift=    0.000
 RMSDP=2.14D-08 MaxDP=1.95D-06 DE=-3.06D-10 OVMax= 1.87D-06

 Cycle  13  Pass 1  IDiag  1:
 RMSU=  1.16D-08    CP:  1.00D+00  6.69D-01  5.86D-01  7.20D-01  7.51D-01
                    CP:  1.03D+00  9.08D-01  1.26D+00  1.01D+00  1.07D+00
                    CP:  9.47D-01  8.32D-01
 E= -1827.69557829662     Delta-E=       -0.000000000045 Rises=F Damp=F
 DIIS: error= 8.47D-08 at cycle  13 NSaved=  13.
 NSaved=13 IEnMin=13 EnMin= -1827.69557829662     IErMin=13 ErrMin= 8.47D-08
 ErrMax= 8.47D-08  0.00D+00 EMaxC= 1.00D-01 BMatC= 7.42D-12 BMatP= 6.67D-11
 IDIUse=1 WtCom= 1.00D+00 WtEn= 0.00D+00
 Coeff-Com: -0.298D-06-0.282D-05-0.344D-05 0.164D-05 0.141D-03 0.731D-03
 Coeff-Com:  0.839D-03-0.464D-02-0.119D-01-0.222D-01 0.543D-01 0.313D+00
 Coeff-Com:  0.670D+00
 Coeff:     -0.298D-06-0.282D-05-0.344D-05 0.164D-05 0.141D-03 0.731D-03
 Coeff:      0.839D-03-0.464D-02-0.119D-01-0.222D-01 0.543D-01 0.313D+00
 Coeff:      0.670D+00
 Gap=     0.362 Goal=   None    Shift=    0.000
 RMSDP=6.72D-09 MaxDP=4.22D-07 DE=-4.55D-11 OVMax= 5.37D-07

 Error on total polarization charges =  0.00522
 SCF Done:  E(RCAM-B3LYP) =  -1827.69557830     A.U. after   13 cycles
            NFock= 13  Conv=0.67D-08     -V/T= 2.0078
 KE= 1.813600194440D+03 PE=-1.101268127084D+04 EE= 4.017890608789D+03
 Leave Link  502 at Sun Mar  3 17:38:19 2024, MaxMem=  5368709120 cpu:       790.2
 (Enter /home/k0335/k033513/app/g09/l601.exe)
 Copying SCF densities to generalized density rwf, IOpCl= 0 IROHF=0.

 **********************************************************************

            Population analysis using the SCF density.

 **********************************************************************

 Alpha  occ. eigenvalues --  -24.83977 -24.83261 -24.83054 -24.82898 -24.82689
 Alpha  occ. eigenvalues --  -24.82606 -24.82518 -24.82493 -24.81840 -19.32682
 Alpha  occ. eigenvalues --  -19.23033 -19.22850 -19.22680 -14.52274 -14.49402
 Alpha  occ. eigenvalues --  -14.49397 -10.59132 -10.55145 -10.53154 -10.48720
 Alpha  occ. eigenvalues --  -10.44890 -10.44859 -10.43804 -10.31130 -10.30933
 Alpha  occ. eigenvalues --  -10.26247 -10.25771 -10.25048  -1.42656  -1.41679
 Alpha  occ. eigenvalues --   -1.38524  -1.35305  -1.33047  -1.32917  -1.32623
 Alpha  occ. eigenvalues --   -1.31855  -1.31034  -1.21632  -1.20067  -1.16590
 Alpha  occ. eigenvalues --   -1.16322  -1.08642  -1.06398  -1.04842  -0.93327
 Alpha  occ. eigenvalues --   -0.88579  -0.86361  -0.84271  -0.80814  -0.80537
 Alpha  occ. eigenvalues --   -0.78541  -0.77532  -0.75047  -0.73500  -0.72448
 Alpha  occ. eigenvalues --   -0.71848  -0.71105  -0.70176  -0.69091  -0.68314
 Alpha  occ. eigenvalues --   -0.68048  -0.67551  -0.67289  -0.65342  -0.64033
 Alpha  occ. eigenvalues --   -0.61497  -0.59726  -0.59376  -0.57015  -0.56758
 Alpha  occ. eigenvalues --   -0.56246  -0.56084  -0.56025  -0.55170  -0.54744
 Alpha  occ. eigenvalues --   -0.54528  -0.54182  -0.53991  -0.53533  -0.52965
 Alpha  occ. eigenvalues --   -0.52808  -0.52731  -0.52164  -0.51855  -0.51733
 Alpha  occ. eigenvalues --   -0.51225  -0.50689  -0.50517  -0.50279  -0.49832
 Alpha  occ. eigenvalues --   -0.49406  -0.48634  -0.48556  -0.48073  -0.46308
 Alpha  occ. eigenvalues --   -0.45817  -0.45436  -0.44844  -0.44373  -0.43595
 Alpha  occ. eigenvalues --   -0.42252  -0.41765  -0.40074  -0.38824  -0.38615
 Alpha  occ. eigenvalues --   -0.37884  -0.35893  -0.35108  -0.34574
 Alpha virt. eigenvalues --    0.01615   0.02523   0.06471   0.07864   0.12174
 Alpha virt. eigenvalues --    0.14113   0.15125   0.15924   0.16433   0.17233
 Alpha virt. eigenvalues --    0.18505   0.19222   0.19789   0.20004   0.20095
 Alpha virt. eigenvalues --    0.20454   0.21629   0.22217   0.22784   0.23087
 Alpha virt. eigenvalues --    0.23206   0.23269   0.23936   0.24170   0.24318
 Alpha virt. eigenvalues --    0.24927   0.25896   0.26258   0.26970   0.27672
 Alpha virt. eigenvalues --    0.28239   0.28885   0.29109   0.29484   0.30462
 Alpha virt. eigenvalues --    0.31820   0.33287   0.36511   0.37789   0.39479
 Alpha virt. eigenvalues --    0.40416   0.40956   0.46940   0.48549   0.50757
 Alpha virt. eigenvalues --    0.51422   0.51618   0.53155   0.53973   0.54337
 Alpha virt. eigenvalues --    0.55161   0.55856   0.56090   0.57283   0.57481
 Alpha virt. eigenvalues --    0.58502   0.59108   0.59490   0.59815   0.60618
 Alpha virt. eigenvalues --    0.60806   0.62516   0.63198   0.65362   0.66089
 Alpha virt. eigenvalues --    0.66926   0.68130   0.68315   0.69995   0.70753
 Alpha virt. eigenvalues --    0.71739   0.72514   0.73066   0.75723   0.78179
 Alpha virt. eigenvalues --    0.78805   0.80141   0.81615   0.83570   0.84120
 Alpha virt. eigenvalues --    0.84863   0.86178   0.86431   0.86663   0.88586
 Alpha virt. eigenvalues --    0.89757   0.91240   0.91981   0.92332   0.92632
 Alpha virt. eigenvalues --    0.93491   0.94017   0.94345   0.95228   0.95653
 Alpha virt. eigenvalues --    0.96031   0.96959   0.97422   0.98433   1.00497
 Alpha virt. eigenvalues --    1.00821   1.01556   1.02928   1.03137   1.04361
 Alpha virt. eigenvalues --    1.05723   1.06047   1.07528   1.08738   1.10020
 Alpha virt. eigenvalues --    1.10850   1.11593   1.12756   1.13712   1.14889
 Alpha virt. eigenvalues --    1.16199   1.16856   1.17781   1.18199   1.19371
 Alpha virt. eigenvalues --    1.19753   1.20872   1.21665   1.22634   1.22851
 Alpha virt. eigenvalues --    1.23387   1.24770   1.25958   1.26877   1.29332
 Alpha virt. eigenvalues --    1.30187   1.30979   1.31877   1.33554   1.34314
 Alpha virt. eigenvalues --    1.35375   1.36005   1.36884   1.37461   1.38871
 Alpha virt. eigenvalues --    1.39729   1.40290   1.40792   1.41481   1.41819
 Alpha virt. eigenvalues --    1.42697   1.43837   1.43998   1.45864   1.47532
 Alpha virt. eigenvalues --    1.48802   1.49314   1.50019   1.51374   1.52033
 Alpha virt. eigenvalues --    1.53489   1.54784   1.55636   1.56297   1.56519
 Alpha virt. eigenvalues --    1.57434   1.57897   1.59820   1.61338   1.61544
 Alpha virt. eigenvalues --    1.63337   1.64428   1.65114   1.67474   1.68865
 Alpha virt. eigenvalues --    1.69183   1.69507   1.71836   1.71871   1.73862
 Alpha virt. eigenvalues --    1.74491   1.75035   1.76183   1.77299   1.77811
 Alpha virt. eigenvalues --    1.79068   1.79418   1.80541   1.81945   1.82760
 Alpha virt. eigenvalues --    1.84286   1.84716   1.85087   1.85666   1.86899
 Alpha virt. eigenvalues --    1.87041   1.88117   1.88508   1.89264   1.89719
 Alpha virt. eigenvalues --    1.90447   1.90653   1.91185   1.91666   1.92025
 Alpha virt. eigenvalues --    1.92697   1.93699   1.93799   1.94605   1.95405
 Alpha virt. eigenvalues --    1.95848   1.96510   1.97432   1.98253   1.98557
 Alpha virt. eigenvalues --    1.99396   1.99488   2.00200   2.00335   2.01813
 Alpha virt. eigenvalues --    2.02248   2.02986   2.03273   2.04103   2.04326
 Alpha virt. eigenvalues --    2.05553   2.06187   2.07330   2.07757   2.08988
 Alpha virt. eigenvalues --    2.10225   2.10275   2.11355   2.11845   2.12248
 Alpha virt. eigenvalues --    2.12652   2.12917   2.14038   2.14277   2.15544
 Alpha virt. eigenvalues --    2.16344   2.17105   2.17824   2.19042   2.19759
 Alpha virt. eigenvalues --    2.20988   2.21268   2.22069   2.22488   2.23533
 Alpha virt. eigenvalues --    2.24426   2.25937   2.26335   2.27154   2.29311
 Alpha virt. eigenvalues --    2.30715   2.30978   2.31522   2.32564   2.32972
 Alpha virt. eigenvalues --    2.33618   2.35780   2.36783   2.37318   2.37640
 Alpha virt. eigenvalues --    2.40186   2.41838   2.43038   2.43453   2.44137
 Alpha virt. eigenvalues --    2.45689   2.47023   2.47490   2.47738   2.50151
 Alpha virt. eigenvalues --    2.51344   2.51744   2.54205   2.55399   2.56263
 Alpha virt. eigenvalues --    2.57222   2.58438   2.62343   2.62664   2.63431
 Alpha virt. eigenvalues --    2.64348   2.65281   2.67194   2.68601   2.70128
 Alpha virt. eigenvalues --    2.71890   2.72662   2.75058   2.76313   2.77749
 Alpha virt. eigenvalues --    2.78091   2.79607   2.80233   2.80314   2.81812
 Alpha virt. eigenvalues --    2.83053   2.83857   2.84043   2.86118   2.87380
 Alpha virt. eigenvalues --    2.88525   2.89985   2.90373   2.91718   2.92469
 Alpha virt. eigenvalues --    2.95100   2.96506   2.97163   2.97313   2.98804
 Alpha virt. eigenvalues --    2.99149   2.99647   3.00759   3.02171   3.04085
 Alpha virt. eigenvalues --    3.04530   3.05528   3.07240   3.08036   3.11053
 Alpha virt. eigenvalues --    3.11603   3.14854   3.17518   3.19001   3.21657
 Alpha virt. eigenvalues --    3.24541   3.26309   3.26984   3.29297   3.31789
 Alpha virt. eigenvalues --    3.34673   3.36882   3.38083   3.41081   3.41687
 Alpha virt. eigenvalues --    3.44854   3.47588   3.52004   3.54582   3.57357
 Alpha virt. eigenvalues --    3.58994   3.61670   3.64411   4.02201   4.15064
 Alpha virt. eigenvalues --    4.17587   4.19744   4.26699   4.30275   4.35168
 Alpha virt. eigenvalues --    4.35913   4.41078   4.42717   4.47112   4.50230
 Alpha virt. eigenvalues --    4.56791   4.58267   4.59835   4.67149   4.73374
 Alpha virt. eigenvalues --    4.77318   4.81379   4.84015   4.88386   5.00038
 Alpha virt. eigenvalues --    5.16788   5.37390   5.54464   5.87409   6.24374
 Alpha virt. eigenvalues --    6.38473
          Condensed to atoms (all electrons):
               1          2          3          4          5          6
     1  C    4.897560   0.368025  -0.044552   0.003581  -0.000037  -0.000026
     2  C    0.368025   4.899753   0.372820  -0.047900  -0.003121  -0.002919
     3  C   -0.044552   0.372820   4.830806   0.241050  -0.023801   0.001280
     4  N    0.003581  -0.047900   0.241050   7.303216   0.257519  -0.090411
     5  C   -0.000037  -0.003121  -0.023801   0.257519   4.147740   0.593661
     6  O   -0.000026  -0.002919   0.001280  -0.090411   0.593661   8.089348
     7  N    0.000001  -0.000252   0.003134  -0.095244   0.256892  -0.090453
     8  C    0.000000   0.000004  -0.000072   0.003286  -0.023562   0.001695
     9  C    0.000000  -0.000001   0.000004  -0.000266  -0.003167  -0.002906
    10  C    0.000000   0.000051   0.000201  -0.004637  -0.019579   0.000352
    11  O    0.000000   0.000000   0.000003   0.000148   0.000237  -0.000025
    12  N    0.000001  -0.000275   0.003012  -0.093672  -0.000819   0.000015
    13  C    0.000000   0.000005  -0.000038   0.002010   0.000244   0.000001
    14  F    0.000000  -0.000001   0.000006   0.000013  -0.000001   0.000000
    15  F    0.000000   0.000000   0.000000  -0.000020   0.000001   0.000000
    16  C    0.000000   0.000000  -0.000001  -0.000290   0.000034   0.000000
    17  F    0.000000   0.000000   0.000004   0.000011   0.000001   0.000000
    18  O    0.000000   0.000000   0.000000   0.000000   0.000000   0.000000
    19  C    0.000000   0.000000   0.000000   0.000000   0.000000   0.000000
    20  F    0.000000   0.000000   0.000000   0.000000   0.000000   0.000000
    21  F    0.000000   0.000000   0.000000   0.000000   0.000000   0.000000
    22  F    0.000000   0.000000   0.000000   0.000000   0.000000   0.000000
    23  C    0.000000   0.000000   0.000000   0.000018   0.000001   0.000000
    24  F    0.000000   0.000000   0.000000   0.000000   0.000000   0.000000
    25  F    0.000000   0.000000  -0.000001  -0.000235   0.000258   0.000000
    26  F    0.000000   0.000000   0.000000   0.000000   0.000000   0.000000
    27  C   -0.000076  -0.002367  -0.024340   0.265213  -0.020218   0.000391
    28  O   -0.000032  -0.002584  -0.000436  -0.089676   0.000179  -0.000025
    29  H    0.387902  -0.027367   0.004138  -0.000121  -0.000004   0.000000
    30  H    0.392437  -0.036757  -0.005035   0.000054   0.000009  -0.000002
    31  H    0.392514  -0.036810  -0.005236   0.000057  -0.000023   0.000011
    32  H   -0.033423   0.391144  -0.036706  -0.005364  -0.000075   0.000059
    33  H   -0.033322   0.390954  -0.036780  -0.005071   0.004150   0.003934
    34  H   -0.001112  -0.038286   0.386843  -0.033159  -0.003331   0.008124
    35  H   -0.001057  -0.038425   0.386288  -0.033090   0.004349   0.000501
    36  H    0.000000   0.000000  -0.000006   0.000411  -0.003059   0.007847
    37  H    0.000000   0.000000   0.000001  -0.000076   0.004195   0.000513
    38  H    0.000000   0.000000   0.000000   0.000002  -0.000010  -0.000006
    39  H    0.000000   0.000001   0.000001  -0.000021   0.003624   0.003768
    40  H    0.000000   0.000000   0.000000   0.000000  -0.000052   0.000027
               7          8          9         10         11         12
     1  C    0.000001   0.000000   0.000000   0.000000   0.000000   0.000001
     2  C   -0.000252   0.000004  -0.000001   0.000051   0.000000  -0.000275
     3  C    0.003134  -0.000072   0.000004   0.000201   0.000003   0.003012
     4  N   -0.095244   0.003286  -0.000266  -0.004637   0.000148  -0.093672
     5  C    0.256892  -0.023562  -0.003167  -0.019579   0.000237  -0.000819
     6  O   -0.090453   0.001695  -0.002906   0.000352  -0.000025   0.000015
     7  N    7.304639   0.251942  -0.054446   0.256271  -0.089367  -0.094143
     8  C    0.251942   4.792392   0.370959  -0.025235  -0.000470   0.003197
     9  C   -0.054446   0.370959   4.933447  -0.002368  -0.002479  -0.000300
    10  C    0.256271  -0.025235  -0.002368   4.197398   0.565985   0.191619
    11  O   -0.089367  -0.000470  -0.002479   0.565985   8.122494  -0.089426
    12  N   -0.094143   0.003197  -0.000300   0.191619  -0.089426   7.594047
    13  C    0.001588  -0.000035   0.000005  -0.008452   0.012390   0.160739
    14  F   -0.000028   0.000000   0.000000   0.000437   0.000017  -0.048453
    15  F    0.000053   0.000004   0.000000   0.007460  -0.014667  -0.038954
    16  C   -0.000107   0.000001   0.000000  -0.002219  -0.004507  -0.057147
    17  F    0.000000   0.000000   0.000000  -0.000132   0.000003   0.000039
    18  O    0.000000   0.000000   0.000000   0.000039   0.000005   0.001736
    19  C    0.000000   0.000000   0.000000   0.000002   0.000000   0.000291
    20  F    0.000000   0.000000   0.000000   0.000000   0.000000   0.000000
    21  F    0.000000   0.000000   0.000000   0.000002   0.000000   0.000036
    22  F    0.000000   0.000000   0.000000  -0.000001   0.000000  -0.000041
    23  C   -0.000146  -0.000002   0.000000   0.002492   0.007165  -0.003568
    24  F   -0.000004   0.000000   0.000000  -0.000010  -0.000844  -0.000765
    25  F   -0.001245   0.000003   0.000000   0.015465  -0.003850  -0.004324
    26  F    0.000000   0.000000   0.000000   0.000006  -0.000001  -0.000014
    27  C   -0.004877   0.000224   0.000039  -0.008705  -0.000102   0.201257
    28  O    0.000138   0.000003   0.000000   0.000018  -0.000033  -0.090275
    29  H    0.000000   0.000000   0.000000   0.000000   0.000000   0.000000
    30  H    0.000000   0.000000   0.000000   0.000000   0.000000   0.000000
    31  H    0.000000   0.000000   0.000000   0.000000   0.000000   0.000000
    32  H    0.000000   0.000000   0.000000   0.000002   0.000000  -0.000124
    33  H   -0.000019   0.000002   0.000001   0.000000   0.000000  -0.000002
    34  H    0.000413  -0.000007   0.000001  -0.000025   0.000000  -0.000086
    35  H   -0.000078   0.000001   0.000000  -0.000033   0.000000   0.000445
    36  H   -0.034154   0.391919  -0.038225   0.004236   0.000537  -0.000082
    37  H   -0.034496   0.391245  -0.038517  -0.004491   0.009645   0.000492
    38  H    0.004118  -0.028267   0.385621  -0.000046  -0.000018   0.000003
    39  H   -0.005725  -0.032296   0.389447  -0.000175   0.000018  -0.000002
    40  H   -0.006059  -0.032278   0.389845   0.004242   0.002769  -0.000128
              13         14         15         16         17         18
     1  C    0.000000   0.000000   0.000000   0.000000   0.000000   0.000000
     2  C    0.000005  -0.000001   0.000000   0.000000   0.000000   0.000000
     3  C   -0.000038   0.000006   0.000000  -0.000001   0.000004   0.000000
     4  N    0.002010   0.000013  -0.000020  -0.000290   0.000011   0.000000
     5  C    0.000244  -0.000001   0.000001   0.000034   0.000001   0.000000
     6  O    0.000001   0.000000   0.000000   0.000000   0.000000   0.000000
     7  N    0.001588  -0.000028   0.000053  -0.000107   0.000000   0.000000
     8  C   -0.000035   0.000000   0.000004   0.000001   0.000000   0.000000
     9  C    0.000005   0.000000   0.000000   0.000000   0.000000   0.000000
    10  C   -0.008452   0.000437   0.007460  -0.002219  -0.000132   0.000039
    11  O    0.012390   0.000017  -0.014667  -0.004507   0.000003   0.000005
    12  N    0.160739  -0.048453  -0.038954  -0.057147   0.000039   0.001736
    13  C    4.457097   0.251150   0.272694   0.173882  -0.028001  -0.028382
    14  F    0.251150   9.131394  -0.042499  -0.023628   0.000234  -0.001816
    15  F    0.272694  -0.042499   9.094045  -0.032037   0.000298   0.000149
    16  C    0.173882  -0.023628  -0.032037   5.005077   0.226796   0.150174
    17  F   -0.028001   0.000234   0.000298   0.226796   9.117007  -0.050130
    18  O   -0.028382  -0.001816   0.000149   0.150174  -0.050130   8.361337
    19  C   -0.003336   0.012898  -0.000297  -0.001552   0.000394   0.234300
    20  F   -0.000035  -0.000005   0.000000   0.000752  -0.000025  -0.039622
    21  F    0.016835  -0.008447  -0.000380  -0.009781  -0.000019  -0.047239
    22  F   -0.005533  -0.002245   0.000012   0.015037  -0.002828  -0.044862
    23  C   -0.037993   0.001292   0.002375   0.224144  -0.010024  -0.019784
    24  F    0.005626   0.000001   0.000307  -0.041955   0.000307   0.000728
    25  F   -0.006716   0.000002  -0.000084  -0.026988  -0.000704   0.000615
    26  F    0.001560  -0.000001  -0.000001  -0.026492  -0.000845   0.000231
    27  C   -0.013865   0.007451   0.000620  -0.002751   0.007594   0.000140
    28  O    0.016924  -0.008249   0.000014  -0.001527  -0.005129  -0.000007
    29  H    0.000000   0.000000   0.000000   0.000000   0.000000   0.000000
    30  H    0.000000   0.000000   0.000000   0.000000   0.000000   0.000000
    31  H    0.000000   0.000000   0.000000   0.000000   0.000000   0.000000
    32  H   -0.000001  -0.000001   0.000000   0.000000   0.000000   0.000000
    33  H    0.000000   0.000000   0.000000   0.000000   0.000000   0.000000
    34  H    0.000001   0.000000   0.000000   0.000000   0.000000   0.000000
    35  H    0.000004   0.000002   0.000000   0.000000  -0.000003   0.000000
    36  H    0.000001   0.000000   0.000000   0.000000   0.000000   0.000000
    37  H    0.000007   0.000000   0.000002  -0.000001   0.000000   0.000000
    38  H    0.000000   0.000000   0.000000   0.000000   0.000000   0.000000
    39  H    0.000000   0.000000   0.000000   0.000000   0.000000   0.000000
    40  H    0.000001   0.000000  -0.000001   0.000000   0.000000   0.000000
              19         20         21         22         23         24
     1  C    0.000000   0.000000   0.000000   0.000000   0.000000   0.000000
     2  C    0.000000   0.000000   0.000000   0.000000   0.000000   0.000000
     3  C    0.000000   0.000000   0.000000   0.000000   0.000000   0.000000
     4  N    0.000000   0.000000   0.000000   0.000000   0.000018   0.000000
     5  C    0.000000   0.000000   0.000000   0.000000   0.000001   0.000000
     6  O    0.000000   0.000000   0.000000   0.000000   0.000000   0.000000
     7  N    0.000000   0.000000   0.000000   0.000000  -0.000146  -0.000004
     8  C    0.000000   0.000000   0.000000   0.000000  -0.000002   0.000000
     9  C    0.000000   0.000000   0.000000   0.000000   0.000000   0.000000
    10  C    0.000002   0.000000   0.000002  -0.000001   0.002492  -0.000010
    11  O    0.000000   0.000000   0.000000   0.000000   0.007165  -0.000844
    12  N    0.000291   0.000000   0.000036  -0.000041  -0.003568  -0.000765
    13  C   -0.003336  -0.000035   0.016835  -0.005533  -0.037993   0.005626
    14  F    0.012898  -0.000005  -0.008447  -0.002245   0.001292   0.000001
    15  F   -0.000297   0.000000  -0.000380   0.000012   0.002375   0.000307
    16  C   -0.001552   0.000752  -0.009781   0.015037   0.224144  -0.041955
    17  F    0.000394  -0.000025  -0.000019  -0.002828  -0.010024   0.000307
    18  O    0.234300  -0.039622  -0.047239  -0.044862  -0.019784   0.000728
    19  C    3.819431   0.337482   0.303651   0.296647   0.001080  -0.000033
    20  F    0.337482   9.018741  -0.038052  -0.036655  -0.000046   0.000000
    21  F    0.303651  -0.038052   9.062415  -0.033525  -0.000130   0.000001
    22  F    0.296647  -0.036655  -0.033525   9.054287   0.000258   0.000000
    23  C    0.001080  -0.000046  -0.000130   0.000258   4.172091   0.285301
    24  F   -0.000033   0.000000   0.000001   0.000000   0.285301   9.062252
    25  F    0.000005   0.000000   0.000000   0.000000   0.272229  -0.035542
    26  F    0.000007   0.000000   0.000000   0.000000   0.296954  -0.039878
    27  C   -0.000050   0.000000   0.000008  -0.000005  -0.000239   0.000040
    28  O   -0.000044   0.000000   0.000000   0.000093  -0.000288   0.000000
    29  H    0.000000   0.000000   0.000000   0.000000   0.000000   0.000000
    30  H    0.000000   0.000000   0.000000   0.000000   0.000000   0.000000
    31  H    0.000000   0.000000   0.000000   0.000000   0.000000   0.000000
    32  H    0.000000   0.000000   0.000000   0.000000   0.000000   0.000000
    33  H    0.000000   0.000000   0.000000   0.000000   0.000000   0.000000
    34  H    0.000000   0.000000   0.000000   0.000000   0.000000   0.000000
    35  H    0.000000   0.000000   0.000000   0.000000   0.000000   0.000000
    36  H    0.000000   0.000000   0.000000   0.000000   0.000000   0.000000
    37  H    0.000000   0.000000   0.000000   0.000000   0.000005  -0.000001
    38  H    0.000000   0.000000   0.000000   0.000000   0.000000   0.000000
    39  H    0.000000   0.000000   0.000000   0.000000   0.000000   0.000000
    40  H    0.000000   0.000000   0.000000   0.000000   0.000000   0.000000
              25         26         27         28         29         30
     1  C    0.000000   0.000000  -0.000076  -0.000032   0.387902   0.392437
     2  C    0.000000   0.000000  -0.002367  -0.002584  -0.027367  -0.036757
     3  C   -0.000001   0.000000  -0.024340  -0.000436   0.004138  -0.005035
     4  N   -0.000235   0.000000   0.265213  -0.089676  -0.000121   0.000054
     5  C    0.000258   0.000000  -0.020218   0.000179  -0.000004   0.000009
     6  O    0.000000   0.000000   0.000391  -0.000025   0.000000  -0.000002
     7  N   -0.001245   0.000000  -0.004877   0.000138   0.000000   0.000000
     8  C    0.000003   0.000000   0.000224   0.000003   0.000000   0.000000
     9  C    0.000000   0.000000   0.000039   0.000000   0.000000   0.000000
    10  C    0.015465   0.000006  -0.008705   0.000018   0.000000   0.000000
    11  O   -0.003850  -0.000001  -0.000102  -0.000033   0.000000   0.000000
    12  N   -0.004324  -0.000014   0.201257  -0.090275   0.000000   0.000000
    13  C   -0.006716   0.001560  -0.013865   0.016924   0.000000   0.000000
    14  F    0.000002  -0.000001   0.007451  -0.008249   0.000000   0.000000
    15  F   -0.000084  -0.000001   0.000620   0.000014   0.000000   0.000000
    16  C   -0.026988  -0.026492  -0.002751  -0.001527   0.000000   0.000000
    17  F   -0.000704  -0.000845   0.007594  -0.005129   0.000000   0.000000
    18  O    0.000615   0.000231   0.000140  -0.000007   0.000000   0.000000
    19  C    0.000005   0.000007  -0.000050  -0.000044   0.000000   0.000000
    20  F    0.000000   0.000000   0.000000   0.000000   0.000000   0.000000
    21  F    0.000000   0.000000   0.000008   0.000000   0.000000   0.000000
    22  F    0.000000   0.000000  -0.000005   0.000093   0.000000   0.000000
    23  C    0.272229   0.296954  -0.000239  -0.000288   0.000000   0.000000
    24  F   -0.035542  -0.039878   0.000040   0.000000   0.000000   0.000000
    25  F    9.079218  -0.039399   0.003991  -0.000056   0.000000   0.000000
    26  F   -0.039399   9.062838   0.000006   0.000000   0.000000   0.000000
    27  C    0.003991   0.000006   4.180600   0.573112  -0.000003  -0.000024
    28  O   -0.000056   0.000000   0.573112   8.107319   0.000000   0.000007
    29  H    0.000000   0.000000  -0.000003   0.000000   0.584946  -0.028713
    30  H    0.000000   0.000000  -0.000024   0.000007  -0.028713   0.591645
    31  H    0.000000   0.000000   0.000010  -0.000002  -0.028820  -0.031679
    32  H    0.000000   0.000000   0.004710   0.002969  -0.003460  -0.004822
    33  H    0.000000   0.000000  -0.000161   0.000045  -0.003466   0.004967
    34  H    0.000000   0.000000   0.004285   0.000516  -0.000093  -0.000454
    35  H    0.000000   0.000000  -0.004771   0.009338  -0.000096   0.004225
    36  H    0.000000   0.000000  -0.000022   0.000000   0.000000   0.000000
    37  H   -0.000005   0.000000  -0.000030   0.000000   0.000000   0.000000
    38  H    0.000000   0.000000   0.000000   0.000000   0.000000   0.000000
    39  H    0.000000   0.000000   0.000000   0.000000   0.000000   0.000000
    40  H    0.000000   0.000000   0.000002   0.000000   0.000000   0.000000
              31         32         33         34         35         36
     1  C    0.392514  -0.033423  -0.033322  -0.001112  -0.001057   0.000000
     2  C   -0.036810   0.391144   0.390954  -0.038286  -0.038425   0.000000
     3  C   -0.005236  -0.036706  -0.036780   0.386843   0.386288  -0.000006
     4  N    0.000057  -0.005364  -0.005071  -0.033159  -0.033090   0.000411
     5  C   -0.000023  -0.000075   0.004150  -0.003331   0.004349  -0.003059
     6  O    0.000011   0.000059   0.003934   0.008124   0.000501   0.007847
     7  N    0.000000   0.000000  -0.000019   0.000413  -0.000078  -0.034154
     8  C    0.000000   0.000000   0.000002  -0.000007   0.000001   0.391919
     9  C    0.000000   0.000000   0.000001   0.000001   0.000000  -0.038225
    10  C    0.000000   0.000002   0.000000  -0.000025  -0.000033   0.004236
    11  O    0.000000   0.000000   0.000000   0.000000   0.000000   0.000537
    12  N    0.000000  -0.000124  -0.000002  -0.000086   0.000445  -0.000082
    13  C    0.000000  -0.000001   0.000000   0.000001   0.000004   0.000001
    14  F    0.000000  -0.000001   0.000000   0.000000   0.000002   0.000000
    15  F    0.000000   0.000000   0.000000   0.000000   0.000000   0.000000
    16  C    0.000000   0.000000   0.000000   0.000000   0.000000   0.000000
    17  F    0.000000   0.000000   0.000000   0.000000  -0.000003   0.000000
    18  O    0.000000   0.000000   0.000000   0.000000   0.000000   0.000000
    19  C    0.000000   0.000000   0.000000   0.000000   0.000000   0.000000
    20  F    0.000000   0.000000   0.000000   0.000000   0.000000   0.000000
    21  F    0.000000   0.000000   0.000000   0.000000   0.000000   0.000000
    22  F    0.000000   0.000000   0.000000   0.000000   0.000000   0.000000
    23  C    0.000000   0.000000   0.000000   0.000000   0.000000   0.000000
    24  F    0.000000   0.000000   0.000000   0.000000   0.000000   0.000000
    25  F    0.000000   0.000000   0.000000   0.000000   0.000000   0.000000
    26  F    0.000000   0.000000   0.000000   0.000000   0.000000   0.000000
    27  C    0.000010   0.004710  -0.000161   0.004285  -0.004771  -0.000022
    28  O   -0.000002   0.002969   0.000045   0.000516   0.009338   0.000000
    29  H   -0.028820  -0.003460  -0.003466  -0.000093  -0.000096   0.000000
    30  H   -0.031679  -0.004822   0.004967  -0.000454   0.004225   0.000000
    31  H    0.592312   0.004984  -0.004790   0.004261  -0.000442   0.000000
    32  H    0.004984   0.599965  -0.036365   0.004924  -0.005652   0.000000
    33  H   -0.004790  -0.036365   0.598974  -0.005639   0.004902   0.000000
    34  H    0.004261   0.004924  -0.005639   0.555144  -0.029889   0.000002
    35  H   -0.000442  -0.005652   0.004902  -0.029889   0.553778   0.000000
    36  H    0.000000   0.000000   0.000000   0.000002   0.000000   0.549071
    37  H    0.000000   0.000000   0.000000   0.000000   0.000000  -0.028617
    38  H    0.000000   0.000000   0.000000   0.000000   0.000000  -0.001477
    39  H    0.000000   0.000000   0.000002   0.000000   0.000000  -0.005052
    40  H    0.000000   0.000000   0.000000   0.000000   0.000000   0.004510
              37         38         39         40
     1  C    0.000000   0.000000   0.000000   0.000000
     2  C    0.000000   0.000000   0.000001   0.000000
     3  C    0.000001   0.000000   0.000001   0.000000
     4  N   -0.000076   0.000002  -0.000021   0.000000
     5  C    0.004195  -0.000010   0.003624  -0.000052
     6  O    0.000513  -0.000006   0.003768   0.000027
     7  N   -0.034496   0.004118  -0.005725  -0.006059
     8  C    0.391245  -0.028267  -0.032296  -0.032278
     9  C   -0.038517   0.385621   0.389447   0.389845
    10  C   -0.004491  -0.000046  -0.000175   0.004242
    11  O    0.009645  -0.000018   0.000018   0.002769
    12  N    0.000492   0.000003  -0.000002  -0.000128
    13  C    0.000007   0.000000   0.000000   0.000001
    14  F    0.000000   0.000000   0.000000   0.000000
    15  F    0.000002   0.000000   0.000000  -0.000001
    16  C   -0.000001   0.000000   0.000000   0.000000
    17  F    0.000000   0.000000   0.000000   0.000000
    18  O    0.000000   0.000000   0.000000   0.000000
    19  C    0.000000   0.000000   0.000000   0.000000
    20  F    0.000000   0.000000   0.000000   0.000000
    21  F    0.000000   0.000000   0.000000   0.000000
    22  F    0.000000   0.000000   0.000000   0.000000
    23  C    0.000005   0.000000   0.000000   0.000000
    24  F   -0.000001   0.000000   0.000000   0.000000
    25  F   -0.000005   0.000000   0.000000   0.000000
    26  F    0.000000   0.000000   0.000000   0.000000
    27  C   -0.000030   0.000000   0.000000   0.000002
    28  O    0.000000   0.000000   0.000000   0.000000
    29  H    0.000000   0.000000   0.000000   0.000000
    30  H    0.000000   0.000000   0.000000   0.000000
    31  H    0.000000   0.000000   0.000000   0.000000
    32  H    0.000000   0.000000   0.000000   0.000000
    33  H    0.000000   0.000000   0.000002   0.000000
    34  H    0.000000   0.000000   0.000000   0.000000
    35  H    0.000000   0.000000   0.000000   0.000000
    36  H   -0.028617  -0.001477  -0.005052   0.004510
    37  H    0.547271  -0.001343   0.004483  -0.005069
    38  H   -0.001343   0.564809  -0.025204  -0.025323
    39  H    0.004483  -0.025204   0.571532  -0.031467
    40  H   -0.005069  -0.025323  -0.031467   0.572950
 Mulliken charges:
               1
     1  C   -0.328383
     2  C   -0.185694
     3  C   -0.052588
     4  N   -0.577335
     5  C    0.827765
     6  O   -0.524753
     7  N   -0.568345
     8  C   -0.064655
     9  C   -0.326693
    10  C    0.829830
    11  O   -0.515626
    12  N   -0.634330
    13  C    0.759625
    14  F   -0.269522
    15  F   -0.249094
    16  C    0.435083
    17  F   -0.254852
    18  O   -0.517612
    19  C    0.999125
    20  F   -0.242535
    21  F   -0.245375
    22  F   -0.240641
    23  C    0.806813
    24  F   -0.235532
    25  F   -0.252637
    26  F   -0.254972
    27  C    0.832910
    28  O   -0.512310
    29  H    0.115157
    30  H    0.114142
    31  H    0.113654
    32  H    0.117237
    33  H    0.117683
    34  H    0.147567
    35  H    0.149704
    36  H    0.152160
    37  H    0.154788
    38  H    0.127144
    39  H    0.127066
    40  H    0.126030
 Sum of Mulliken charges =   0.00000
 Mulliken charges with hydrogens summed into heavy atoms:
               1
     1  C    0.014570
     2  C    0.049226
     3  C    0.244683
     4  N   -0.577335
     5  C    0.827765
     6  O   -0.524753
     7  N   -0.568345
     8  C    0.242293
     9  C    0.053547
    10  C    0.829830
    11  O   -0.515626
    12  N   -0.634330
    13  C    0.759625
    14  F   -0.269522
    15  F   -0.249094
    16  C    0.435083
    17  F   -0.254852
    18  O   -0.517612
    19  C    0.999125
    20  F   -0.242535
    21  F   -0.245375
    22  F   -0.240641
    23  C    0.806813
    24  F   -0.235532
    25  F   -0.252637
    26  F   -0.254972
    27  C    0.832910
    28  O   -0.512310
 Electronic spatial extent (au):  <R**2>=          10838.3469
 Charge=              0.0000 electrons
 Dipole moment (field-independent basis, Debye):
    X=              3.3520    Y=              0.3169    Z=              0.1009  Tot=              3.3684
 Quadrupole moment (field-independent basis, Debye-Ang):
   XX=           -164.7009   YY=           -153.1195   ZZ=           -152.4819
   XY=              0.1707   XZ=             -0.1852   YZ=             -0.3790
 Traceless Quadrupole moment (field-independent basis, Debye-Ang):
   XX=             -7.9334   YY=              3.6480   ZZ=              4.2855
   XY=              0.1707   XZ=             -0.1852   YZ=             -0.3790
 Octapole moment (field-independent basis, Debye-Ang**2):
  XXX=            410.5680  YYY=             -5.4164  ZZZ=             54.5200  XYY=            177.5754
  XXY=            -31.5068  XXZ=             17.2496  XZZ=            151.6262  YZZ=             -6.8239
  YYZ=             23.3998  XYZ=             10.7618
 Hexadecapole moment (field-independent basis, Debye-Ang**3):
 XXXX=          -8038.2090 YYYY=          -3090.6622 ZZZZ=          -1139.6846 XXXY=           -166.2712
 XXXZ=           -275.1969 YYYX=            -30.1797 YYYZ=           -199.6705 ZZZX=           -249.6626
 ZZZY=           -193.9766 XXYY=          -1806.2819 XXZZ=          -1491.2916 YYZZ=           -710.0499
 XXYZ=            -55.6443 YYXZ=            -56.7492 ZZXY=            -28.0234
 N-N= 3.353494889314D+03 E-N=-1.101268126459D+04  KE= 1.813600194440D+03
 No NMR shielding tensors so no spin-rotation constants.
 Leave Link  601 at Sun Mar  3 17:38:20 2024, MaxMem=  5368709120 cpu:         5.9
 (Enter /home/k0335/k033513/app/g09/l9999.exe)
 1\1\GINC-C24U17N2\SP\RCAM-B3LYP\6-31G(d,p)\C12H12F9N3O4\K033513\03-Mar
 -2024\0\\#p CAM-B3LYP/6-31G(d,p) SCRF=(PCM,Solvent=Generic,Read) NoSym
 m out=wfn\\Title A1452355792_0\\0,1\C,0,3.723631,-3.375758,-0.575192\C
 ,0,2.793541,-2.32364,0.005863\C,0,2.273395,-1.376127,-1.077612\N,0,1.3
 79831,-0.360437,-0.519717\C,0,1.935089,0.8214,-0.074403\O,0,3.152481,1
 .006332,-0.050643\N,0,1.037061,1.78364,0.338384\C,0,1.555283,3.102394,
 0.70011\C,0,1.896996,3.18298,2.181263\C,0,-0.312519,1.544467,0.483042\
 O,0,-1.097761,2.446645,0.769283\N,0,-0.737025,0.26042,0.263303\C,0,-2.
 141242,-0.066471,0.453053\F,0,-2.173726,-1.313308,1.020617\F,0,-2.6875
 11,0.713664,1.432909\C,0,-3.097436,-0.051494,-0.778327\F,0,-2.697187,-
 0.940079,-1.733784\O,0,-4.478958,-0.350916,-0.510837\C,0,-4.675384,-1.
 578536,0.138083\F,0,-5.943686,-1.975593,-0.08203\F,0,-4.508095,-1.4100
 62,1.460594\F,0,-3.843208,-2.524834,-0.319803\C,0,-3.056708,1.338752,-
 1.40264\F,0,-3.477022,2.302385,-0.557672\F,0,-1.81412,1.665907,-1.8312
 97\F,0,-3.86201,1.404576,-2.495171\C,0,0.04441,-0.668691,-0.374825\O,0
 ,-0.42353,-1.721444,-0.804992\H,0,4.083382,-4.041895,0.215194\H,0,3.20
 745,-3.984894,-1.32406\H,0,4.593646,-2.910929,-1.049847\H,0,1.953373,-
 2.820154,0.50553\H,0,3.326873,-1.755606,0.777157\H,0,3.115557,-0.88321
 8,-1.577921\H,0,1.738527,-1.947014,-1.845876\H,0,2.449683,3.322875,0.1
 06355\H,0,0.812703,3.870138,0.455337\H,0,2.28422,4.176168,2.428389\H,0
 ,2.656441,2.44214,2.451683\H,0,1.013552,2.996215,2.800497\\Version=ES6
 4L-G09RevD.01\HF=-1827.6955783\RMSD=6.716e-09\Dipole=1.318765,0.124662
 9,0.0397054\Quadrupole=-5.898326,2.7121632,3.1861628,0.1269046,-0.1376
 769,-0.2817578\PG=C01 [X(C12H12F9N3O4)]\\@

 Writing a WFN file to "A1452355792/A1452355792_0.wfn"


 EVANS BOLDLY PUT 50 ATM. OF ETHYLENE IN A CELL WITH 25 ATM. OF OXYGEN.
 THE APPARATUS SUBSEQUENTLY BLEW UP, BUT LUCKILY NOT BEFORE HE
 OBTAINED THE SPECTRA SHOWN IN FIGURE 8.
 A.J.MERER AND R.S.MULLIKEN, CHEM.REV. 69, 645 (1969)
 Job cpu time:       0 days  0 hours 13 minutes 43.6 seconds.
 File lengths (MBytes):  RWF=    278 Int=      0 D2E=      0 Chk=     10 Scr=      1
 Normal termination of Gaussian 09 at Sun Mar  3 17:38:20 2024.
