 Entering Gaussian System, Link 0=g09
 Initial command:
 /home/k0335/k033513/app/g09/l1.exe "/home/k0335/k033513/app/g09/scratch/Gau-373524.inp" -scrdir="/home/k0335/k033513/app/g09/scratch/"
 Default is to use a total of  36 processors:
                               36 via shared-memory
                                1 via Linda
 Entering Link 1 = /home/k0335/k033513/app/g09/l1.exe PID=    373525.
  
 Copyright (c) 1988,1990,1992,1993,1995,1998,2003,2009,2013,
            Gaussian, Inc.  All Rights Reserved.
  
 This is part of the Gaussian(R) 09 program.  It is based on
 the Gaussian(R) 03 system (copyright 2003, Gaussian, Inc.),
 the Gaussian(R) 98 system (copyright 1998, Gaussian, Inc.),
 the Gaussian(R) 94 system (copyright 1995, Gaussian, Inc.),
 the Gaussian 92(TM) system (copyright 1992, Gaussian, Inc.),
 the Gaussian 90(TM) system (copyright 1990, Gaussian, Inc.),
 the Gaussian 88(TM) system (copyright 1988, Gaussian, Inc.),
 the Gaussian 86(TM) system (copyright 1986, Carnegie Mellon
 University), and the Gaussian 82(TM) system (copyright 1983,
 Carnegie Mellon University). Gaussian is a federally registered
 trademark of Gaussian, Inc.
  
 This software contains proprietary and confidential information,
 including trade secrets, belonging to Gaussian, Inc.
  
 This software is provided under written license and may be
 used, copied, transmitted, or stored only in accord with that
 written license.
  
 The following legend is applicable only to US Government
 contracts under FAR:
  
                    RESTRICTED RIGHTS LEGEND
  
 Use, reproduction and disclosure by the US Government is
 subject to restrictions as set forth in subparagraphs (a)
 and (c) of the Commercial Computer Software - Restricted
 Rights clause in FAR 52.227-19.
  
 Gaussian, Inc.
 340 Quinnipiac St., Bldg. 40, Wallingford CT 06492
  
  
 ---------------------------------------------------------------
 Warning -- This program may not be used in any manner that
 competes with the business of Gaussian, Inc. or will provide
 assistance to any competitor of Gaussian, Inc.  The licensee
 of this program is prohibited from giving any competitor of
 Gaussian, Inc. access to this program.  By using this program,
 the user acknowledges that Gaussian, Inc. is engaged in the
 business of creating and licensing software in the field of
 computational chemistry and represents and warrants to the
 licensee that it is not a competitor of Gaussian, Inc. and that
 it will not use this program in any manner prohibited above.
 ---------------------------------------------------------------
  

 Cite this work as:
 Gaussian 09, Revision D.01,
 M. J. Frisch, G. W. Trucks, H. B. Schlegel, G. E. Scuseria, 
 M. A. Robb, J. R. Cheeseman, G. Scalmani, V. Barone, B. Mennucci, 
 G. A. Petersson, H. Nakatsuji, M. Caricato, X. Li, H. P. Hratchian, 
 A. F. Izmaylov, J. Bloino, G. Zheng, J. L. Sonnenberg, M. Hada, 
 M. Ehara, K. Toyota, R. Fukuda, J. Hasegawa, M. Ishida, T. Nakajima, 
 Y. Honda, O. Kitao, H. Nakai, T. Vreven, J. A. Montgomery, Jr., 
 J. E. Peralta, F. Ogliaro, M. Bearpark, J. J. Heyd, E. Brothers, 
 K. N. Kudin, V. N. Staroverov, T. Keith, R. Kobayashi, J. Normand, 
 K. Raghavachari, A. Rendell, J. C. Burant, S. S. Iyengar, J. Tomasi, 
 M. Cossi, N. Rega, J. M. Millam, M. Klene, J. E. Knox, J. B. Cross, 
 V. Bakken, C. Adamo, J. Jaramillo, R. Gomperts, R. E. Stratmann, 
 O. Yazyev, A. J. Austin, R. Cammi, C. Pomelli, J. W. Ochterski, 
 R. L. Martin, K. Morokuma, V. G. Zakrzewski, G. A. Voth, 
 P. Salvador, J. J. Dannenberg, S. Dapprich, A. D. Daniels, 
 O. Farkas, J. B. Foresman, J. V. Ortiz, J. Cioslowski, 
 and D. J. Fox, Gaussian, Inc., Wallingford CT, 2013.
 
 ******************************************
 Gaussian 09:  ES64L-G09RevD.01 24-Apr-2013
                 3-Mar-2024 
 ******************************************
 %nprocshared=24
 Will use up to   24 processors via shared memory.
 %mem=40GB
 %rwf=A1452355792/A1452355792_p1.rwf
 %nosave
 %chk=A1452355792/A1452355792_p1.chk
 ----------------------------------------------------------------------
 #p CAM-B3LYP/6-31G(d,p) SCRF=(PCM,Solvent=Generic,Read) NoSymm out=wfn
 ----------------------------------------------------------------------
 1/38=1,40=2/1;
 2/12=2,15=1,17=6,18=5,40=1/2;
 3/5=1,6=6,7=101,11=2,16=1,25=1,30=1,70=2203,72=-2,74=-40/1,2,3;
 4//1;
 5/5=2,38=5/2;
 6/7=2,8=2,9=2,10=2,28=1/1;
 99/5=1,6=100,9=1/99;
 Leave Link    1 at Sun Mar  3 17:37:43 2024, MaxMem=  5368709120 cpu:         1.0
 (Enter /home/k0335/k033513/app/g09/l101.exe)
 --------------------
 Title A1452355792_p1
 --------------------
 Symbolic Z-matrix:
 Charge =  1 Multiplicity = 2
 C                     3.72363  -3.37576  -0.57519 
 C                     2.79354  -2.32364   0.00586 
 C                     2.2734   -1.37613  -1.07761 
 N                     1.37983  -0.36044  -0.51972 
 C                     1.93509   0.8214   -0.0744 
 O                     3.15248   1.00633  -0.05064 
 N                     1.03706   1.78364   0.33838 
 C                     1.55528   3.10239   0.70011 
 C                     1.897     3.18298   2.18126 
 C                    -0.31252   1.54447   0.48304 
 O                    -1.09776   2.44665   0.76928 
 N                    -0.73703   0.26042   0.2633 
 C                    -2.14124  -0.06647   0.45305 
 F                    -2.17373  -1.31331   1.02062 
 F                    -2.68751   0.71366   1.43291 
 C                    -3.09744  -0.05149  -0.77833 
 F                    -2.69719  -0.94008  -1.73378 
 O                    -4.47896  -0.35092  -0.51084 
 C                    -4.67538  -1.57854   0.13808 
 F                    -5.94369  -1.97559  -0.08203 
 F                    -4.50809  -1.41006   1.46059 
 F                    -3.84321  -2.52483  -0.3198 
 C                    -3.05671   1.33875  -1.40264 
 F                    -3.47702   2.30239  -0.55767 
 F                    -1.81412   1.66591  -1.8313 
 F                    -3.86201   1.40458  -2.49517 
 C                     0.04441  -0.66869  -0.37483 
 O                    -0.42353  -1.72144  -0.80499 
 H                     4.08338  -4.0419    0.21519 
 H                     3.20745  -3.98489  -1.32406 
 H                     4.59365  -2.91093  -1.04985 
 H                     1.95337  -2.82015   0.50553 
 H                     3.32687  -1.75561   0.77716 
 H                     3.11556  -0.88322  -1.57792 
 H                     1.73853  -1.94701  -1.84588 
 H                     2.44968   3.32288   0.10636 
 H                     0.8127    3.87014   0.45534 
 H                     2.28422   4.17617   2.42839 
 H                     2.65644   2.44214   2.45168 
 H                     1.01355   2.99622   2.8005 
 
 NAtoms=     40 NQM=       40 NQMF=       0 NMMI=      0 NMMIF=      0
                NMic=       0 NMicF=      0.
                    Isotopes and Nuclear Properties:
 (Nuclear quadrupole moments (NQMom) in fm**2, nuclear magnetic moments (NMagM)
  in nuclear magnetons)

  Atom         1           2           3           4           5           6           7           8           9          10
 IAtWgt=          12          12          12          14          12          16          14          12          12          12
 AtmWgt=  12.0000000  12.0000000  12.0000000  14.0030740  12.0000000  15.9949146  14.0030740  12.0000000  12.0000000  12.0000000
 NucSpn=           0           0           0           2           0           0           2           0           0           0
 AtZEff=   0.0000000   0.0000000   0.0000000   0.0000000   0.0000000   0.0000000   0.0000000   0.0000000   0.0000000   0.0000000
 NQMom=    0.0000000   0.0000000   0.0000000   2.0440000   0.0000000   0.0000000   2.0440000   0.0000000   0.0000000   0.0000000
 NMagM=    0.0000000   0.0000000   0.0000000   0.4037610   0.0000000   0.0000000   0.4037610   0.0000000   0.0000000   0.0000000
 AtZNuc=   6.0000000   6.0000000   6.0000000   7.0000000   6.0000000   8.0000000   7.0000000   6.0000000   6.0000000   6.0000000

  Atom        11          12          13          14          15          16          17          18          19          20
 IAtWgt=          16          14          12          19          19          12          19          16          12          19
 AtmWgt=  15.9949146  14.0030740  12.0000000  18.9984033  18.9984033  12.0000000  18.9984033  15.9949146  12.0000000  18.9984033
 NucSpn=           0           2           0           1           1           0           1           0           0           1
 AtZEff=   0.0000000   0.0000000   0.0000000   0.0000000   0.0000000   0.0000000   0.0000000   0.0000000   0.0000000   0.0000000
 NQMom=    0.0000000   2.0440000   0.0000000   0.0000000   0.0000000   0.0000000   0.0000000   0.0000000   0.0000000   0.0000000
 NMagM=    0.0000000   0.4037610   0.0000000   2.6288670   2.6288670   0.0000000   2.6288670   0.0000000   0.0000000   2.6288670
 AtZNuc=   8.0000000   7.0000000   6.0000000   9.0000000   9.0000000   6.0000000   9.0000000   8.0000000   6.0000000   9.0000000

  Atom        21          22          23          24          25          26          27          28          29          30
 IAtWgt=          19          19          12          19          19          19          12          16           1           1
 AtmWgt=  18.9984033  18.9984033  12.0000000  18.9984033  18.9984033  18.9984033  12.0000000  15.9949146   1.0078250   1.0078250
 NucSpn=           1           1           0           1           1           1           0           0           1           1
 AtZEff=   0.0000000   0.0000000   0.0000000   0.0000000   0.0000000   0.0000000   0.0000000   0.0000000   0.0000000   0.0000000
 NQMom=    0.0000000   0.0000000   0.0000000   0.0000000   0.0000000   0.0000000   0.0000000   0.0000000   0.0000000   0.0000000
 NMagM=    2.6288670   2.6288670   0.0000000   2.6288670   2.6288670   2.6288670   0.0000000   0.0000000   2.7928460   2.7928460
 AtZNuc=   9.0000000   9.0000000   6.0000000   9.0000000   9.0000000   9.0000000   6.0000000   8.0000000   1.0000000   1.0000000

  Atom        31          32          33          34          35          36          37          38          39          40
 IAtWgt=           1           1           1           1           1           1           1           1           1           1
 AtmWgt=   1.0078250   1.0078250   1.0078250   1.0078250   1.0078250   1.0078250   1.0078250   1.0078250   1.0078250   1.0078250
 NucSpn=           1           1           1           1           1           1           1           1           1           1
 AtZEff=   0.0000000   0.0000000   0.0000000   0.0000000   0.0000000   0.0000000   0.0000000   0.0000000   0.0000000   0.0000000
 NQMom=    0.0000000   0.0000000   0.0000000   0.0000000   0.0000000   0.0000000   0.0000000   0.0000000   0.0000000   0.0000000
 NMagM=    2.7928460   2.7928460   2.7928460   2.7928460   2.7928460   2.7928460   2.7928460   2.7928460   2.7928460   2.7928460
 AtZNuc=   1.0000000   1.0000000   1.0000000   1.0000000   1.0000000   1.0000000   1.0000000   1.0000000   1.0000000   1.0000000
 Leave Link  101 at Sun Mar  3 17:37:43 2024, MaxMem=  5368709120 cpu:         0.8
 (Enter /home/k0335/k033513/app/g09/l202.exe)
                          Input orientation:                          
 ---------------------------------------------------------------------
 Center     Atomic      Atomic             Coordinates (Angstroms)
 Number     Number       Type             X           Y           Z
 ---------------------------------------------------------------------
      1          6           0        3.723631   -3.375758   -0.575192
      2          6           0        2.793541   -2.323640    0.005863
      3          6           0        2.273395   -1.376127   -1.077612
      4          7           0        1.379831   -0.360437   -0.519717
      5          6           0        1.935089    0.821400   -0.074403
      6          8           0        3.152481    1.006332   -0.050643
      7          7           0        1.037061    1.783640    0.338384
      8          6           0        1.555283    3.102394    0.700110
      9          6           0        1.896996    3.182980    2.181263
     10          6           0       -0.312519    1.544467    0.483042
     11          8           0       -1.097761    2.446645    0.769283
     12          7           0       -0.737025    0.260420    0.263303
     13          6           0       -2.141242   -0.066471    0.453053
     14          9           0       -2.173726   -1.313308    1.020617
     15          9           0       -2.687511    0.713664    1.432909
     16          6           0       -3.097436   -0.051494   -0.778327
     17          9           0       -2.697187   -0.940079   -1.733784
     18          8           0       -4.478958   -0.350916   -0.510837
     19          6           0       -4.675384   -1.578536    0.138083
     20          9           0       -5.943686   -1.975593   -0.082030
     21          9           0       -4.508095   -1.410062    1.460594
     22          9           0       -3.843208   -2.524834   -0.319803
     23          6           0       -3.056708    1.338752   -1.402640
     24          9           0       -3.477022    2.302385   -0.557672
     25          9           0       -1.814120    1.665907   -1.831297
     26          9           0       -3.862010    1.404576   -2.495171
     27          6           0        0.044410   -0.668691   -0.374825
     28          8           0       -0.423530   -1.721444   -0.804992
     29          1           0        4.083382   -4.041895    0.215194
     30          1           0        3.207450   -3.984894   -1.324060
     31          1           0        4.593646   -2.910929   -1.049847
     32          1           0        1.953373   -2.820154    0.505530
     33          1           0        3.326873   -1.755606    0.777157
     34          1           0        3.115557   -0.883218   -1.577921
     35          1           0        1.738527   -1.947014   -1.845876
     36          1           0        2.449683    3.322875    0.106355
     37          1           0        0.812703    3.870138    0.455337
     38          1           0        2.284220    4.176168    2.428389
     39          1           0        2.656441    2.442140    2.451683
     40          1           0        1.013552    2.996215    2.800497
 ---------------------------------------------------------------------
                    Distance matrix (angstroms):
                    1          2          3          4          5
     1  C    0.000000
     2  C    1.519751   0.000000
     3  C    2.520741   1.530441   0.000000
     4  N    3.819507   2.475677   1.463328   0.000000
     5  C    4.589750   3.261082   2.439263   1.379621   0.000000
     6  O    4.450177   3.349738   2.739264   2.287002   1.231587
     7  N    5.888265   4.479458   3.676642   2.334715   1.379403
     8  C    6.949430   5.608664   4.871666   3.675590   2.438659
     9  C    7.345181   5.988240   5.616707   4.485371   3.265967
    10  C    6.451277   4.983730   4.201483   2.738290   2.425966
    11  O    7.678138   6.203278   5.421190   3.959759   3.542796
    12  N    5.815696   4.382755   3.679534   2.340868   2.751170
    13  C    6.812151   5.444894   4.852541   3.664785   4.205116
    14  F    6.448188   5.169549   4.917662   3.988528   4.757984
    15  F    7.865023   6.426788   5.939742   4.637856   4.863335
    16  C    7.590715   6.362485   5.539860   4.495358   5.155944
    17  F    6.964321   5.923572   5.032632   4.293253   5.226312
    18  O    8.742784   7.553003   6.853215   5.858803   6.534891
    19  C    8.618713   7.507163   7.057224   6.211449   7.035851
    20  F    9.780628   8.744598   8.298853   7.512270   8.360522
    21  F    8.704579   7.500984   7.241012   6.300081   6.989296
    22  F    7.618815   6.647780   6.269500   5.657271   6.681783
    23  C    8.299655   7.044318   5.990510   4.832150   5.191330
    24  F    9.170116   7.812659   6.846100   5.539051   5.631857
    25  F    7.593607   6.365704   5.150708   4.003453   4.225688
    26  F    9.169507   8.028146   6.883675   5.873209   6.309245
    27  C    4.572201   3.231331   2.441874   1.378174   2.425962
    28  O    4.470851   3.371894   2.732576   2.277242   3.544418
    29  H    1.094472   2.158682   3.471847   4.626274   5.324534
    30  H    1.094666   2.167898   2.781881   4.138097   5.126500
    31  H    1.094664   2.167905   2.782077   4.136986   4.685050
    32  H    2.147200   1.096392   2.166556   2.725856   3.687489
    33  H    2.147361   1.096358   2.166561   2.723849   3.050111
    34  H    2.754628   2.164921   1.096588   2.099009   2.561209
    35  H    2.756190   2.164218   1.096460   2.098711   3.292548
    36  H    6.852673   5.657868   4.849070   3.886301   2.560246
    37  H    7.876452   6.518330   5.657460   4.378371   3.291683
    38  H    8.253786   6.955253   6.566593   5.485438   4.200039
    39  H    6.644457   5.358497   5.213618   4.279415   3.086788
    40  H    7.703366   6.267312   5.978654   4.735514   3.720766
                    6          7          8          9         10
     6  O    0.000000
     7  N    2.287040   0.000000
     8  C    2.740100   1.462365   0.000000
     9  C    3.360869   2.468571   1.522194   0.000000
    10  C    3.546919   1.378222   2.441913   3.232744   0.000000
    11  O    4.561944   2.276558   2.733758   3.391820   1.229823
    12  N    3.972808   2.339491   3.677267   4.376985   1.370134
    13  C    5.424769   3.679357   4.875145   5.463791   2.437262
    14  F    5.907352   4.512835   5.788494   6.175312   3.452529
    15  F    6.032585   4.026819   4.923853   5.260728   2.689436
    16  C    6.380437   4.659273   5.812106   6.645701   3.448754
    17  F    6.390626   5.065287   6.352081   7.309838   4.095599
    18  O    7.764841   5.975280   7.057181   7.771011   4.683961
    19  C    8.245764   6.631469   7.813334   8.369158   5.376498
    20  F    9.572519   7.939736   9.090227   9.654515   6.664846
    21  F    8.173568   6.496756   7.596390   7.914581   5.223764
    22  F    7.840998   6.543178   7.864453   8.472568   5.446975
    23  C    6.363366   4.470798   5.366792   6.386292   3.335969
    24  F    6.774005   4.631302   5.248440   6.095677   3.416373
    25  F    5.317226   3.584775   4.452459   5.672260   2.761470
    26  F    7.438911   5.672179   6.514558   7.628755   4.635538
    27  C    3.545547   2.740064   4.202298   4.980063   2.400292
    28  O    4.560445   3.965633   5.426827   6.193217   3.512482
    29  H    5.140218   6.575113   7.593898   7.800290   7.113588
    30  H    5.151403   6.383596   7.553580   8.085975   6.799238
    31  H    4.291888   6.051071   6.960895   7.405925   6.802261
    32  H    4.048356   4.697072   5.939100   6.232887   4.917793
    33  H    2.888593   4.238163   5.171521   5.329699   4.921601
    34  H    2.429885   3.886451   4.848606   5.670125   4.678988
    35  H    3.734217   4.379592   5.657928   6.523787   4.671305
    36  H    2.425891   2.102043   1.095951   2.151808   3.306719
    37  H    3.732554   2.101782   1.095796   2.150976   2.583726
    38  H    4.116714   3.412875   2.161316   1.094274   4.177712
    39  H    2.927326   2.742635   2.171749   1.094864   3.673702
    40  H    4.082114   2.744611   2.171721   1.094900   3.039183
                   11         12         13         14         15
    11  O    0.000000
    12  N    2.272823   0.000000
    13  C    2.739454   1.454197   0.000000
    14  F    3.918943   2.261472   1.370324   0.000000
    15  F    2.443548   2.319009   1.366433   2.131332   0.000000
    16  C    3.554504   2.598812   1.559111   2.383614   2.375515
    17  F    4.504820   3.044961   2.419612   2.828434   3.572521
    18  O    4.571384   3.869766   2.544584   2.930127   2.849695
    19  C    5.422166   4.348346   2.967730   2.665990   3.298847
    20  F    6.615430   5.677000   4.288314   3.983347   4.486627
    21  F    5.194466   4.294762   2.902132   2.377440   2.797410
    22  F    5.782663   4.212603   3.088291   2.460019   3.859469
    23  C    3.127643   3.052719   2.501265   3.699359   2.927009
    24  F    2.728095   3.514428   2.901267   4.154854   2.666416
    25  F    2.808156   2.742786   2.885550   4.139861   3.510644
    26  F    4.402686   4.322476   3.717129   4.753731   4.157718
    27  C    3.509823   1.371530   2.413530   2.698688   3.555587
    28  O    4.506206   2.273174   2.696692   2.561759   4.007937
    29  H    8.321803   6.461312   7.389622   6.873521   8.363203
    30  H    8.017582   6.008435   6.864450   6.449181   8.026699
    31  H    8.025269   6.340179   7.463804   7.255104   8.503940
    32  H    6.092467   4.097176   4.934713   4.423669   5.906412
    33  H    6.102160   4.565487   5.732234   5.523721   6.534533
    34  H    5.860836   4.420453   5.694371   5.908798   6.729839
    35  H    5.847036   3.930618   4.886115   4.891226   6.117144
    36  H    3.713706   4.422485   5.717032   6.611050   5.912570
    37  H    2.403075   3.933014   4.921655   6.008861   4.813572
    38  H    4.145079   5.398944   6.441013   7.210371   6.139872
    39  H    4.113942   4.589610   5.771084   6.283459   5.708183
    40  H    2.980856   4.121462   4.984302   5.647894   4.558311
                   16         17         18         19         20
    16  C    0.000000
    17  F    1.364801   0.000000
    18  O    1.438683   2.239960   0.000000
    19  C    2.379408   2.797280   1.402402   0.000000
    20  F    3.505442   3.786864   2.229098   1.347106   0.000000
    21  F    2.974632   3.701935   2.238120   1.343653   2.181842
    22  F    2.623706   2.413329   2.273014   1.340767   2.184081
    23  C    1.524536   2.330661   2.381824   3.674848   4.589503
    24  F    2.394477   3.536235   2.836560   4.120885   4.961024
    25  F    2.388538   2.753267   3.593404   4.753073   5.777004
    26  F    2.377450   2.726523   2.720286   4.061350   4.645661
    27  C    3.227219   3.071933   4.536556   4.833978   6.136042
    28  O    3.152652   2.577344   4.290847   4.357531   5.573095
    29  H    8.274934   7.706873   9.352225   9.098905  10.242072
    30  H    7.451245   6.656088   8.540960   8.370633   9.451096
    31  H    8.209923   7.583420   9.442264   9.439352  10.622942
    32  H    5.901223   5.493352   6.964555   6.754040   7.963796
    33  H    6.826073   6.577173   8.035115   8.029688   9.312887
    34  H    6.319209   5.815111   7.687566   8.007927   9.246667
    35  H    5.302754   4.549950   6.556446   6.723847   7.882155
    36  H    6.552828   6.931750   7.866621   8.648203   9.927633
    37  H    5.673651   6.344270   6.837577   7.740013   8.950426
    38  H    7.557670   8.265233   8.652983   9.316556  10.575670
    39  H    7.053955   7.590710   8.215327   8.676073   9.994911
    40  H    6.244736   7.058590   7.234354   7.770508   9.023913
                   21         22         23         24         25
    21  F    0.000000
    22  F    2.203317   0.000000
    23  C    4.226182   4.088816   0.000000
    24  F    4.349571   4.846929   1.348786   0.000000
    25  F    5.249346   4.895316   1.354549   2.189171   0.000000
    26  F    4.897723   4.491419   1.358848   2.169834   2.168612
    27  C    4.964242   4.308349   3.834470   4.610988   3.320511
    28  O    4.681187   3.546130   4.081128   5.057290   3.802787
    29  H    9.071441   8.088172   9.085683   9.899844   8.458585
    30  H    8.597307   7.269944   8.221135   9.208659   7.576609
    31  H    9.560157   8.477178   8.758548   9.620632   7.913126
    32  H    6.682146   5.862486   6.785169   7.540557   6.307100
    33  H    7.872307   7.294182   7.421366   8.033806   6.703774
    34  H    8.223759   7.259626   6.562372   7.392636   5.555534
    35  H    7.088113   5.815371   5.829837   6.849731   5.067022
    36  H    8.523223   8.601034   6.044349   6.050468   4.967902
    37  H    7.563197   7.948208   4.983205   4.678224   4.121593
    38  H    8.847493   9.486905   7.159136   6.754223   6.422050
    39  H    8.194650   8.636979   6.979494   6.833383   6.239581
    40  H    7.190216   7.987889   6.081164   5.650129   5.587393
                   26         27         28         29         30
    26  F    0.000000
    27  C    4.904531   0.000000
    28  O    4.944881   1.229756   0.000000
    29  H   10.006967   5.295274   5.170834   0.000000
    30  H    8.966334   4.680072   4.310064   1.771951   0.000000
    31  H    9.602638   5.116526   5.162062   1.771943   1.774861
    32  H    7.789174   3.007982   2.928190   2.472627   2.505340
    33  H    8.507345   3.644586   4.070612   2.472898   3.065795
    34  H    7.400121   3.305360   3.718223   3.758881   3.113404
    35  H    6.559021   2.582273   2.410148   3.759638   2.565732
    36  H    7.091211   4.685026   5.876314   7.544578   7.484904
    37  H    6.052887   4.677650   5.863658   8.564769   8.402535
    38  H    8.348611   6.028882   7.250413   8.698953   9.029738
    39  H    8.248522   4.948649   6.117809   7.005766   7.474397
    40  H    7.372145   4.945042   6.109097   8.102015   8.400062
                   31         32         33         34         35
    31  H    0.000000
    32  H    3.065694   0.000000
    33  H    2.505480   1.758848   0.000000
    34  H    2.564219   3.072973   2.520339   0.000000
    35  H    3.116809   2.517467   3.072423   1.760589   0.000000
    36  H    6.692809   6.175959   5.197154   4.579453   5.664687
    37  H    7.908475   6.787021   6.170382   5.659653   6.323922
    38  H    8.225480   7.263289   6.244969   6.506845   7.487355
    39  H    6.683474   5.654516   4.568872   5.244664   6.210978
    40  H    7.908007   6.322997   5.659078   6.216025   6.822748
                   36         37         38         39         40
    36  H    0.000000
    37  H    1.760962   0.000000
    38  H    2.479381   2.480313   0.000000
    39  H    2.513763   3.069845   1.773681   0.000000
    40  H    3.070436   2.510748   1.773514   1.768546   0.000000
 Symmetry turned off by external request.
 Stoichiometry    C12H12F9N3O4(1+,2)
 Framework group  C1[X(C12H12F9N3O4)]
 Deg. of freedom   114
 Full point group                 C1      NOp   1
 Rotational constants (GHZ):      0.2757367      0.1363174      0.1111907
 Leave Link  202 at Sun Mar  3 17:37:43 2024, MaxMem=  5368709120 cpu:         0.1
 (Enter /home/k0335/k033513/app/g09/l301.exe)
 Standard basis: 6-31G(d,p) (6D, 7F)
 Ernie: Thresh=  0.10000D-02 Tol=  0.10000D-05 Strict=F.
   480 basis functions,   868 primitive gaussians,   480 cartesian basis functions
   109 alpha electrons      108 beta electrons
       nuclear repulsion energy      3353.4948893143 Hartrees.
 IExCor=20419 DFT=T Ex+Corr=CAM-B3LYP ExCW=0 ScaHFX=  1.000000
 ScaDFX=  1.000000  1.000000  1.000000  0.810000 ScalE2=  1.000000  1.000000
 IRadAn=      0 IRanWt=     -1 IRanGd=            0 ICorTp=0 IEmpDi=  4
  HFx wShort=  0.000000 wLong=  0.330000 cFull=  0.190000 cShort=  0.000000 cLong=  0.460000
  DFx wShort=  0.000000 wLong=  0.330000 cFull=  0.190000 cShort=  0.000000 cLong=  0.460000
 NAtoms=   40 NActive=   40 NUniq=   40 SFac= 1.00D+00 NAtFMM=   60 NAOKFM=F Big=F
 Integral buffers will be    131072 words long.
 Raffenetti 2 integral format.
 Two-electron integral symmetry is turned off.
 Using the following non-standard input for PCM:
 eps=4.9
 --- end of non-standard input.
 ------------------------------------------------------------------------------
 Polarizable Continuum Model (PCM)
 =================================
 Model                : PCM (using non-symmetric T matrix).
 Atomic radii         : UFF (Universal Force Field).
 Polarization charges : Total charges.
 Charge compensation  : None.
 Solution method      : On-the-fly selection.
 Cavity type          : Scaled VdW (van der Waals Surface) (Alpha=1.100).
 Cavity algorithm     : GePol (No added spheres)
                        Default sphere list used, NSphG=   40.
                        Lebedev-Laikov grids with approx.  5.0 points / Ang**2.
                        Smoothing algorithm: Karplus/York (Gamma=1.0000).
                        Polarization charges: spherical gaussians, with
                                              point-specific exponents (IZeta= 3).
                        Self-potential: point-specific (ISelfS= 7).
                        Self-field    : sphere-specific E.n sum rule (ISelfD= 2).
 Solvent              : Generic,
                        Eps                           =   4.900000
                        Eps(infinity)                 =   0.000000
                        RSolv                         =   0.000000 Ang.
                        Molar volume                  =   0.000000 cm**3/mol
                        Thermal expansion coefficient =   0.000000 K**-1
                        Absolute temperature          = 298.150000 K
                        Numeral density               =   0.000000 Ang**-3
                        Hydrogen bond acidity         =   0.000000
                        Hydrogen bond basicity        =   0.000000
                        Surface tension at interface  =   0.000000 (cal/mol)*Ang**-2
                        Carbon aromaticity            =   0.000000
                        Electronegative halogenicity  =   0.000000
 ------------------------------------------------------------------------------
 GePol: Number of generator spheres                  =      40
 GePol: Total number of spheres                      =      40
 GePol: Number of exposed spheres                    =      40 (100.00%)
 GePol: Number of points                             =    3055
 GePol: Average weight of points                     =       0.13
 GePol: Minimum weight of points                     =   0.14D-09
 GePol: Maximum weight of points                     =    0.20577
 GePol: Number of points with low weight             =     149
 GePol: Fraction of low-weight points (<1% of avg)   =       4.88%
 GePol: Cavity surface area                          =    388.304 Ang**2
 GePol: Cavity volume                                =    437.438 Ang**3
 Leave Link  301 at Sun Mar  3 17:37:43 2024, MaxMem=  5368709120 cpu:         0.7
 (Enter /home/k0335/k033513/app/g09/l302.exe)
 NPDir=0 NMtPBC=     1 NCelOv=     1 NCel=       1 NClECP=     1 NCelD=      1
         NCelK=      1 NCelE2=     1 NClLst=     1 CellRange=     0.0.
 One-electron integrals computed using PRISM.
 NBasis=   480 RedAO= T EigKep=  1.25D-03  NBF=   480
 NBsUse=   480 1.00D-06 EigRej= -1.00D+00 NBFU=   480
 Precomputing XC quadrature grid using
 IXCGrd= 4 IRadAn=           0 IRanWt=          -1 IRanGd=           0 AccXCQ= 0.00D+00.
 Generated NRdTot=       0 NPtTot=           0 NUsed=           0 NTot=          32
 NSgBfM=   472   472   472   473   473 MxSgAt=    40 MxSgA2=    40.
 Leave Link  302 at Sun Mar  3 17:37:43 2024, MaxMem=  5368709120 cpu:         7.7
 (Enter /home/k0335/k033513/app/g09/l303.exe)
 DipDrv:  MaxL=1.
 Leave Link  303 at Sun Mar  3 17:37:43 2024, MaxMem=  5368709120 cpu:         0.7
 (Enter /home/k0335/k033513/app/g09/l401.exe)
 ExpMin= 1.61D-01 ExpMax= 7.00D+03 ExpMxC= 1.05D+03 IAcc=1 IRadAn=         1 AccDes= 0.00D+00
 Harris functional with IExCor=20419 and IRadAn=       1 diagonalized for initial guess.
 HarFok:  IExCor=20419 AccDes= 0.00D+00 IRadAn=         1 IDoV= 1 UseB2=F ITyADJ=14
 ICtDFT=  3500011 ScaDFX=  1.000000  1.000000  1.000000  1.000000
 FoFCou: FMM=F IPFlag=           0 FMFlag=      100000 FMFlg1=           0
         NFxFlg=           0 DoJE=T BraDBF=F KetDBF=T FulRan=T
         wScrn=  0.000000 ICntrl=     500 IOpCl=  0 I1Cent=   200000004 NGrid=           0
         NMat0=    1 NMatS0=      1 NMatT0=    0 NMatD0=    1 NMtDS0=    0 NMtDT0=    0
 Symmetry not used in FoFCou.
 Harris En= -1769.56746514982    
 JPrj=0 DoOrth=F DoCkMO=F.
 Initial guess <Sx>= 0.0000 <Sy>= 0.0000 <Sz>= 0.5000 <S**2>= 0.7500 S= 0.5000
 Leave Link  401 at Sun Mar  3 17:37:44 2024, MaxMem=  5368709120 cpu:        10.6
 (Enter /home/k0335/k033513/app/g09/l502.exe)
 UHF open shell SCF:
 Using DIIS extrapolation, IDIIS=  1040.
 Two-electron integral symmetry not used.
 IVT=      724230 IEndB=      724230 NGot=  5368709120 MDV=  5368232411
 LenX=  5368232411 LenY=  5368001531
 Requested convergence on RMS density matrix=1.00D-08 within 128 cycles.
 Requested convergence on MAX density matrix=1.00D-06.
 Requested convergence on             energy=1.00D-06.
 No special actions if energy rises.
 Fock matrices will be formed incrementally for  20 cycles.

 Cycle   1  Pass 1  IDiag  1:
 FoFJK:  IHMeth= 1 ICntrl=       0 DoSepK=T KAlg= 0 I1Cent=   0 FoldK=F
 IRaf=         1 NMat=   1 IRICut=       1 DoRegI=T DoRafI=F ISym2E= 0.
 FoFCou: FMM=F IPFlag=           0 FMFlag=      100000 FMFlg1=           0
         NFxFlg=           0 DoJE=T BraDBF=F KetDBF=F FulRan=T
         wScrn=  0.000000 ICntrl=     500 IOpCl=  0 I1Cent=           0 NGrid=           0
         NMat0=    1 NMatS0=      1 NMatT0=    0 NMatD0=    1 NMtDS0=    0 NMtDT0=    0
 Symmetry not used in FoFCou.
 Inv3:  Mode=1 IEnd=    27999075.
 Iteration    1 A*A^-1 deviation from unit magnitude is 6.00D-15 for   3016.
 Iteration    1 A*A^-1 deviation from orthogonality  is 3.81D-15 for   3035     82.
 Iteration    1 A^-1*A deviation from unit magnitude is 6.88D-15 for   3016.
 Iteration    1 A^-1*A deviation from orthogonality  is 1.11D-12 for   3010   2987.
 E= -1826.54992747952    
 DIIS: error= 5.31D-02 at cycle   1 NSaved=   1.
 NSaved= 1 IEnMin= 1 EnMin= -1826.54992747952     IErMin= 1 ErrMin= 5.31D-02
 ErrMax= 5.31D-02  0.00D+00 EMaxC= 1.00D-01 BMatC= 6.81D+00 BMatP= 6.81D+00
 IDIUse=3 WtCom= 4.69D-01 WtEn= 5.31D-01
 Coeff-Com:  0.100D+01
 Coeff-En:   0.100D+01
 Coeff:      0.100D+01
 Gap=     0.555 Goal=   None    Shift=    0.000
 Gap=    -0.042 Goal=   None    Shift=    0.000
 GapD=   -0.042 DampG=0.250 DampE=0.500 DampFc=0.2500 IDamp=-1.
 Damping current iteration by 2.50D-01
 RMSDP=3.94D-03 MaxDP=1.78D-01              OVMax= 5.45D-01

 Cycle   2  Pass 1  IDiag  1:
 RMSU=  9.85D-04    CP:  1.00D+00
 E= -1826.81804911062     Delta-E=       -0.268121631103 Rises=F Damp=T
 DIIS: error= 4.18D-02 at cycle   2 NSaved=   2.
 NSaved= 2 IEnMin= 2 EnMin= -1826.81804911062     IErMin= 2 ErrMin= 4.18D-02
 ErrMax= 4.18D-02  0.00D+00 EMaxC= 1.00D-01 BMatC= 2.76D+00 BMatP= 6.81D+00
 IDIUse=3 WtCom= 5.82D-01 WtEn= 4.18D-01
 Coeff-Com: -0.136D+01 0.236D+01
 Coeff-En:   0.000D+00 0.100D+01
 Coeff:     -0.790D+00 0.179D+01
 Gap=     0.470 Goal=   None    Shift=    0.000
 Gap=     0.096 Goal=   None    Shift=    0.000
 RMSDP=2.09D-03 MaxDP=1.32D-01 DE=-2.68D-01 OVMax= 8.77D-01

 Cycle   3  Pass 1  IDiag  1:
 RMSU=  1.53D-03    CP:  9.99D-01  2.44D+00
 E= -1827.27502764646     Delta-E=       -0.456978535840 Rises=F Damp=F
 DIIS: error= 9.42D-03 at cycle   3 NSaved=   3.
 NSaved= 3 IEnMin= 3 EnMin= -1827.27502764646     IErMin= 3 ErrMin= 9.42D-03
 ErrMax= 9.42D-03  0.00D+00 EMaxC= 1.00D-01 BMatC= 3.99D-01 BMatP= 2.76D+00
 IDIUse=3 WtCom= 9.06D-01 WtEn= 9.42D-02
 Coeff-Com: -0.513D+00 0.903D+00 0.609D+00
 Coeff-En:   0.000D+00 0.000D+00 0.100D+01
 Coeff:     -0.464D+00 0.818D+00 0.646D+00
 Gap=     0.419 Goal=   None    Shift=    0.000
 Gap=     0.047 Goal=   None    Shift=    0.000
 RMSDP=8.93D-04 MaxDP=7.24D-02 DE=-4.57D-01 OVMax= 1.90D-01

 Cycle   4  Pass 1  IDiag  1:
 RMSU=  8.23D-04    CP:  1.00D+00  2.50D+00  7.78D-01
 E= -1827.33319563354     Delta-E=       -0.058167987077 Rises=F Damp=F
 DIIS: error= 4.49D-03 at cycle   4 NSaved=   4.
 NSaved= 4 IEnMin= 4 EnMin= -1827.33319563354     IErMin= 4 ErrMin= 4.49D-03
 ErrMax= 4.49D-03  0.00D+00 EMaxC= 1.00D-01 BMatC= 1.28D-01 BMatP= 3.99D-01
 IDIUse=3 WtCom= 9.55D-01 WtEn= 4.49D-02
 Coeff-Com: -0.762D-01 0.132D+00 0.351D+00 0.594D+00
 Coeff-En:   0.000D+00 0.000D+00 0.226D+00 0.774D+00
 Coeff:     -0.728D-01 0.126D+00 0.345D+00 0.602D+00
 Gap=     0.371 Goal=   None    Shift=    0.000
 Gap=     0.101 Goal=   None    Shift=    0.000
 RMSDP=4.91D-04 MaxDP=6.88D-02 DE=-5.82D-02 OVMax= 1.61D-01

 Cycle   5  Pass 1  IDiag  1:
 RMSU=  3.62D-04    CP:  9.99D-01  2.53D+00  8.95D-01  6.67D-01
 E= -1827.36252986549     Delta-E=       -0.029334231948 Rises=F Damp=F
 DIIS: error= 1.75D-03 at cycle   5 NSaved=   5.
 NSaved= 5 IEnMin= 5 EnMin= -1827.36252986549     IErMin= 5 ErrMin= 1.75D-03
 ErrMax= 1.75D-03  0.00D+00 EMaxC= 1.00D-01 BMatC= 1.91D-02 BMatP= 1.28D-01
 IDIUse=3 WtCom= 9.82D-01 WtEn= 1.75D-02
 Coeff-Com: -0.153D-01 0.227D-01 0.133D+00 0.350D+00 0.510D+00
 Coeff-En:   0.000D+00 0.000D+00 0.000D+00 0.000D+00 0.100D+01
 Coeff:     -0.150D-01 0.223D-01 0.131D+00 0.343D+00 0.518D+00
 Gap=     0.356 Goal=   None    Shift=    0.000
 Gap=     0.099 Goal=   None    Shift=    0.000
 RMSDP=1.60D-04 MaxDP=1.53D-02 DE=-2.93D-02 OVMax= 3.75D-02

 Cycle   6  Pass 1  IDiag  1:
 RMSU=  1.47D-04    CP:  9.99D-01  2.54D+00  8.98D-01  7.37D-01  1.07D+00
 E= -1827.36832445447     Delta-E=       -0.005794588978 Rises=F Damp=F
 DIIS: error= 1.13D-03 at cycle   6 NSaved=   6.
 NSaved= 6 IEnMin= 6 EnMin= -1827.36832445447     IErMin= 6 ErrMin= 1.13D-03
 ErrMax= 1.13D-03  0.00D+00 EMaxC= 1.00D-01 BMatC= 1.99D-03 BMatP= 1.91D-02
 IDIUse=3 WtCom= 9.89D-01 WtEn= 1.13D-02
 Coeff-Com: -0.135D-02-0.643D-04-0.315D-01 0.245D-01 0.927D-01 0.916D+00
 Coeff-En:   0.000D+00 0.000D+00 0.000D+00 0.000D+00 0.000D+00 0.100D+01
 Coeff:     -0.133D-02-0.636D-04-0.311D-01 0.242D-01 0.916D-01 0.917D+00
 Gap=     0.356 Goal=   None    Shift=    0.000
 Gap=     0.107 Goal=   None    Shift=    0.000
 RMSDP=1.76D-04 MaxDP=1.53D-02 DE=-5.79D-03 OVMax= 7.35D-02

 Cycle   7  Pass 1  IDiag  1:
 RMSU=  8.63D-05    CP:  9.98D-01  2.56D+00  8.91D-01  7.43D-01  1.44D+00
                    CP:  1.49D+00
 E= -1827.37151961621     Delta-E=       -0.003195161748 Rises=F Damp=F
 DIIS: error= 8.38D-04 at cycle   7 NSaved=   7.
 NSaved= 7 IEnMin= 7 EnMin= -1827.37151961621     IErMin= 7 ErrMin= 8.38D-04
 ErrMax= 8.38D-04  0.00D+00 EMaxC= 1.00D-01 BMatC= 1.83D-03 BMatP= 1.99D-03
 IDIUse=3 WtCom= 9.92D-01 WtEn= 8.38D-03
 Coeff-Com: -0.100D-02 0.123D-02-0.639D-01-0.932D-01-0.172D+00 0.657D+00
 Coeff-Com:  0.673D+00
 Coeff-En:   0.000D+00 0.000D+00 0.000D+00 0.000D+00 0.000D+00 0.000D+00
 Coeff-En:   0.100D+01
 Coeff:     -0.992D-03 0.122D-02-0.634D-01-0.925D-01-0.171D+00 0.651D+00
 Coeff:      0.676D+00
 Gap=     0.356 Goal=   None    Shift=    0.000
 Gap=     0.113 Goal=   None    Shift=    0.000
 RMSDP=1.34D-04 MaxDP=8.24D-03 DE=-3.20D-03 OVMax= 4.80D-02

 Cycle   8  Pass 1  IDiag  1:
 RMSU=  5.09D-05    CP:  9.98D-01  2.57D+00  8.79D-01  7.44D-01  1.67D+00
                    CP:  2.05D+00  1.45D+00
 E= -1827.37357826029     Delta-E=       -0.002058644072 Rises=F Damp=F
 DIIS: error= 8.65D-04 at cycle   8 NSaved=   8.
 NSaved= 8 IEnMin= 8 EnMin= -1827.37357826029     IErMin= 7 ErrMin= 8.38D-04
 ErrMax= 8.65D-04  0.00D+00 EMaxC= 1.00D-01 BMatC= 3.98D-04 BMatP= 1.83D-03
 IDIUse=3 WtCom= 9.92D-01 WtEn= 8.38D-03
 Coeff-Com: -0.353D-02 0.624D-02 0.189D-03-0.137D-01-0.904D-01-0.294D-02
 Coeff-Com:  0.356D-01 0.107D+01
 Coeff-En:   0.000D+00 0.000D+00 0.000D+00 0.000D+00 0.000D+00 0.000D+00
 Coeff-En:   0.000D+00 0.100D+01
 Coeff:     -0.350D-02 0.619D-02 0.188D-03-0.136D-01-0.897D-01-0.291D-02
 Coeff:      0.353D-01 0.107D+01
 Gap=     0.356 Goal=   None    Shift=    0.000
 Gap=     0.115 Goal=   None    Shift=    0.000
 RMSDP=1.23D-04 MaxDP=1.07D-02 DE=-2.06D-03 OVMax= 5.18D-02

 Cycle   9  Pass 1  IDiag  1:
 RMSU=  3.07D-05    CP:  9.98D-01  2.58D+00  8.61D-01  7.21D-01  1.83D+00
                    CP:  2.44D+00  2.20D+00  1.90D+00
 E= -1827.37494130770     Delta-E=       -0.001363047417 Rises=F Damp=F
 DIIS: error= 7.00D-04 at cycle   9 NSaved=   9.
 NSaved= 9 IEnMin= 9 EnMin= -1827.37494130770     IErMin= 9 ErrMin= 7.00D-04
 ErrMax= 7.00D-04  0.00D+00 EMaxC= 1.00D-01 BMatC= 3.38D-04 BMatP= 3.98D-04
 IDIUse=3 WtCom= 9.93D-01 WtEn= 7.00D-03
 Coeff-Com: -0.670D-03 0.160D-02 0.340D-01 0.483D-01 0.416D-01-0.191D+00
 Coeff-Com: -0.415D+00 0.560D+00 0.921D+00
 Coeff-En:   0.000D+00 0.000D+00 0.000D+00 0.000D+00 0.000D+00 0.000D+00
 Coeff-En:   0.000D+00 0.000D+00 0.100D+01
 Coeff:     -0.665D-03 0.159D-02 0.338D-01 0.479D-01 0.413D-01-0.189D+00
 Coeff:     -0.412D+00 0.556D+00 0.922D+00
 Gap=     0.355 Goal=   None    Shift=    0.000
 Gap=     0.116 Goal=   None    Shift=    0.000
 RMSDP=1.06D-04 MaxDP=9.00D-03 DE=-1.36D-03 OVMax= 4.65D-02

 Cycle  10  Pass 1  IDiag  1:
 RMSU=  2.07D-05    CP:  9.98D-01  2.58D+00  8.44D-01  6.97D-01  1.93D+00
                    CP:  2.71D+00  2.83D+00  3.00D+00  1.94D+00
 E= -1827.37592398933     Delta-E=       -0.000982681624 Rises=F Damp=F
 DIIS: error= 5.69D-04 at cycle  10 NSaved=  10.
 NSaved=10 IEnMin=10 EnMin= -1827.37592398933     IErMin=10 ErrMin= 5.69D-04
 ErrMax= 5.69D-04  0.00D+00 EMaxC= 1.00D-01 BMatC= 1.73D-04 BMatP= 3.38D-04
 IDIUse=3 WtCom= 9.94D-01 WtEn= 5.69D-03
 Coeff-Com:  0.386D-02-0.576D-02 0.264D-02 0.104D-01 0.435D-01 0.843D-01
 Coeff-Com: -0.155D+00-0.323D+00-0.146D+00 0.149D+01
 Coeff-En:   0.000D+00 0.000D+00 0.000D+00 0.000D+00 0.000D+00 0.000D+00
 Coeff-En:   0.000D+00 0.000D+00 0.000D+00 0.100D+01
 Coeff:      0.384D-02-0.572D-02 0.263D-02 0.103D-01 0.432D-01 0.839D-01
 Coeff:     -0.155D+00-0.322D+00-0.145D+00 0.148D+01
 Gap=     0.355 Goal=   None    Shift=    0.000
 Gap=     0.118 Goal=   None    Shift=    0.000
 RMSDP=1.25D-04 MaxDP=1.19D-02 DE=-9.83D-04 OVMax= 5.56D-02

 Cycle  11  Pass 1  IDiag  1:
 RMSU=  8.44D-05    CP:  9.98D-01  2.58D+00  8.23D-01  6.71D-01  2.01D+00
                    CP:  2.95D+00  3.00D+00  3.00D+00  3.00D+00  2.63D+00
 E= -1827.37684752843     Delta-E=       -0.000923539103 Rises=F Damp=F
 DIIS: error= 4.22D-04 at cycle  11 NSaved=  11.
 NSaved=11 IEnMin=11 EnMin= -1827.37684752843     IErMin=11 ErrMin= 4.22D-04
 ErrMax= 4.22D-04  0.00D+00 EMaxC= 1.00D-01 BMatC= 1.37D-04 BMatP= 1.73D-04
 IDIUse=3 WtCom= 9.96D-01 WtEn= 4.22D-03
 Coeff-Com:  0.258D-02-0.360D-02-0.207D-01-0.262D-01 0.220D-01 0.257D+00
 Coeff-Com:  0.183D+00-0.565D+00-0.984D+00 0.953D+00 0.118D+01
 Coeff-En:   0.000D+00 0.000D+00 0.000D+00 0.000D+00 0.000D+00 0.000D+00
 Coeff-En:   0.000D+00 0.000D+00 0.000D+00 0.000D+00 0.100D+01
 Coeff:      0.257D-02-0.358D-02-0.206D-01-0.261D-01 0.219D-01 0.256D+00
 Coeff:      0.183D+00-0.563D+00-0.980D+00 0.949D+00 0.118D+01
 Gap=     0.355 Goal=   None    Shift=    0.000
 Gap=     0.120 Goal=   None    Shift=    0.000
 RMSDP=1.36D-04 MaxDP=1.21D-02 DE=-9.24D-04 OVMax= 5.93D-02

 Cycle  12  Pass 1  IDiag  1:
 RMSU=  6.33D-05    CP:  9.98D-01  2.58D+00  7.97D-01  6.35D-01  2.06D+00
                    CP:  3.00D+00  3.00D+00  3.00D+00  3.00D+00  3.00D+00
                    CP:  2.22D+00
 E= -1827.37759882181     Delta-E=       -0.000751293377 Rises=F Damp=F
 DIIS: error= 2.88D-04 at cycle  12 NSaved=  12.
 NSaved=12 IEnMin=12 EnMin= -1827.37759882181     IErMin=12 ErrMin= 2.88D-04
 ErrMax= 2.88D-04  0.00D+00 EMaxC= 1.00D-01 BMatC= 7.11D-05 BMatP= 1.37D-04
 IDIUse=3 WtCom= 9.97D-01 WtEn= 2.88D-03
 Coeff-Com: -0.954D-04 0.392D-03-0.203D-02-0.161D-01 0.840D-02-0.338D-02
 Coeff-Com:  0.812D-01 0.159D+00-0.129D+00-0.658D+00 0.244D+00 0.132D+01
 Coeff-En:   0.000D+00 0.000D+00 0.000D+00 0.000D+00 0.000D+00 0.000D+00
 Coeff-En:   0.000D+00 0.000D+00 0.000D+00 0.000D+00 0.000D+00 0.100D+01
 Coeff:     -0.951D-04 0.391D-03-0.203D-02-0.161D-01 0.837D-02-0.337D-02
 Coeff:      0.810D-01 0.159D+00-0.129D+00-0.656D+00 0.244D+00 0.131D+01
 Gap=     0.355 Goal=   None    Shift=    0.000
 Gap=     0.121 Goal=   None    Shift=    0.000
 RMSDP=1.02D-04 MaxDP=8.04D-03 DE=-7.51D-04 OVMax= 4.52D-02

 Cycle  13  Pass 1  IDiag  1:
 RMSU=  2.43D-05    CP:  9.98D-01  2.58D+00  7.77D-01  6.07D-01  2.08D+00
                    CP:  3.00D+00  3.00D+00  3.00D+00  3.00D+00  3.00D+00
                    CP:  3.00D+00  1.90D+00
 E= -1827.37799082856     Delta-E=       -0.000392006756 Rises=F Damp=F
 DIIS: error= 1.73D-04 at cycle  13 NSaved=  13.
 NSaved=13 IEnMin=13 EnMin= -1827.37799082856     IErMin=13 ErrMin= 1.73D-04
 ErrMax= 1.73D-04  0.00D+00 EMaxC= 1.00D-01 BMatC= 5.42D-05 BMatP= 7.11D-05
 IDIUse=3 WtCom= 9.98D-01 WtEn= 1.73D-03
 Coeff-Com: -0.864D-03 0.149D-02 0.831D-02-0.272D-03 0.184D-01-0.928D-01
 Coeff-Com: -0.228D-01 0.274D+00 0.263D+00-0.718D+00-0.285D+00 0.848D+00
 Coeff-Com:  0.706D+00
 Coeff-En:   0.000D+00 0.000D+00 0.000D+00 0.000D+00 0.000D+00 0.000D+00
 Coeff-En:   0.000D+00 0.000D+00 0.000D+00 0.000D+00 0.000D+00 0.000D+00
 Coeff-En:   0.100D+01
 Coeff:     -0.862D-03 0.148D-02 0.830D-02-0.272D-03 0.184D-01-0.926D-01
 Coeff:     -0.228D-01 0.273D+00 0.263D+00-0.717D+00-0.284D+00 0.846D+00
 Coeff:      0.707D+00
 Gap=     0.356 Goal=   None    Shift=    0.000
 Gap=     0.122 Goal=   None    Shift=    0.000
 RMSDP=5.13D-05 MaxDP=4.18D-03 DE=-3.92D-04 OVMax= 2.31D-02

 Cycle  14  Pass 1  IDiag  1:
 RMSU=  2.80D-05    CP:  9.98D-01  2.58D+00  7.66D-01  5.92D-01  2.08D+00
                    CP:  3.00D+00  3.00D+00  3.00D+00  3.00D+00  3.00D+00
                    CP:  3.00D+00  2.35D+00  2.03D+00
 E= -1827.37814348342     Delta-E=       -0.000152654857 Rises=F Damp=F
 DIIS: error= 1.43D-04 at cycle  14 NSaved=  14.
 NSaved=14 IEnMin=14 EnMin= -1827.37814348342     IErMin=14 ErrMin= 1.43D-04
 ErrMax= 1.43D-04  0.00D+00 EMaxC= 1.00D-01 BMatC= 2.44D-05 BMatP= 5.42D-05
 IDIUse=3 WtCom= 9.99D-01 WtEn= 1.43D-03
 Coeff-Com:  0.401D-03-0.523D-03 0.536D-02 0.503D-02 0.182D-01-0.378D-01
 Coeff-Com: -0.391D-01 0.608D-02 0.150D+00 0.193D-01-0.185D+00-0.151D+00
 Coeff-Com: -0.117D+00 0.133D+01
 Coeff-En:   0.000D+00 0.000D+00 0.000D+00 0.000D+00 0.000D+00 0.000D+00
 Coeff-En:   0.000D+00 0.000D+00 0.000D+00 0.000D+00 0.000D+00 0.000D+00
 Coeff-En:   0.000D+00 0.100D+01
 Coeff:      0.401D-03-0.522D-03 0.536D-02 0.503D-02 0.182D-01-0.378D-01
 Coeff:     -0.390D-01 0.607D-02 0.149D+00 0.192D-01-0.185D+00-0.150D+00
 Coeff:     -0.117D+00 0.133D+01
 Gap=     0.357 Goal=   None    Shift=    0.000
 Gap=     0.122 Goal=   None    Shift=    0.000
 RMSDP=4.96D-05 MaxDP=4.35D-03 DE=-1.53D-04 OVMax= 2.15D-02

 Cycle  15  Pass 1  IDiag  1:
 RMSU=  1.15D-05    CP:  9.98D-01  2.58D+00  7.57D-01  5.79D-01  2.08D+00
                    CP:  3.00D+00  3.00D+00  3.00D+00  3.00D+00  3.00D+00
                    CP:  3.00D+00  2.76D+00  3.00D+00  1.77D+00
 E= -1827.37826953019     Delta-E=       -0.000126046772 Rises=F Damp=F
 DIIS: error= 1.29D-04 at cycle  15 NSaved=  15.
 NSaved=15 IEnMin=15 EnMin= -1827.37826953019     IErMin=15 ErrMin= 1.29D-04
 ErrMax= 1.29D-04  0.00D+00 EMaxC= 1.00D-01 BMatC= 2.62D-05 BMatP= 2.44D-05
 IDIUse=3 WtCom= 9.99D-01 WtEn= 1.29D-03
 Coeff-Com:  0.613D-03-0.854D-03 0.690D-03 0.195D-02 0.143D-01 0.785D-02
 Coeff-Com:  0.238D-02-0.121D+00-0.208D-01 0.231D+00 0.421D-01-0.269D+00
 Coeff-Com: -0.624D+00 0.108D+01 0.659D+00
 Coeff-En:   0.000D+00 0.000D+00 0.000D+00 0.000D+00 0.000D+00 0.000D+00
 Coeff-En:   0.000D+00 0.000D+00 0.000D+00 0.000D+00 0.000D+00 0.000D+00
 Coeff-En:   0.000D+00 0.000D+00 0.100D+01
 Coeff:      0.613D-03-0.853D-03 0.689D-03 0.195D-02 0.142D-01 0.784D-02
 Coeff:      0.238D-02-0.120D+00-0.207D-01 0.230D+00 0.420D-01-0.268D+00
 Coeff:     -0.623D+00 0.107D+01 0.659D+00
 Gap=     0.358 Goal=   None    Shift=    0.000
 Gap=     0.122 Goal=   None    Shift=    0.000
 RMSDP=3.14D-05 MaxDP=2.79D-03 DE=-1.26D-04 OVMax= 1.33D-02

 Cycle  16  Pass 1  IDiag  1:
 RMSU=  1.21D-05    CP:  9.98D-01  2.58D+00  7.51D-01  5.72D-01  2.07D+00
                    CP:  3.00D+00  3.00D+00  3.00D+00  3.00D+00  3.00D+00
                    CP:  3.00D+00  3.00D+00  3.00D+00  2.23D+00  2.51D+00
 E= -1827.37834259264     Delta-E=       -0.000073062446 Rises=F Damp=F
 DIIS: error= 1.34D-04 at cycle  16 NSaved=  16.
 NSaved=16 IEnMin=16 EnMin= -1827.37834259264     IErMin=15 ErrMin= 1.29D-04
 ErrMax= 1.34D-04  0.00D+00 EMaxC= 1.00D-01 BMatC= 2.08D-05 BMatP= 2.44D-05
 IDIUse=3 WtCom= 9.99D-01 WtEn= 1.29D-03
 Coeff-Com:  0.484D-03-0.677D-03-0.186D-02-0.235D-02 0.933D-02 0.132D-01
 Coeff-Com:  0.409D-01-0.786D-01-0.549D-01 0.663D-01 0.180D+00 0.184D-01
 Coeff-Com: -0.605D+00 0.127D+00-0.642D+00 0.193D+01
 Coeff-En:   0.000D+00 0.000D+00 0.000D+00 0.000D+00 0.000D+00 0.000D+00
 Coeff-En:   0.000D+00 0.000D+00 0.000D+00 0.000D+00 0.000D+00 0.000D+00
 Coeff-En:   0.000D+00 0.000D+00 0.000D+00 0.100D+01
 Coeff:      0.483D-03-0.676D-03-0.186D-02-0.235D-02 0.932D-02 0.132D-01
 Coeff:      0.409D-01-0.785D-01-0.548D-01 0.663D-01 0.180D+00 0.184D-01
 Coeff:     -0.605D+00 0.126D+00-0.641D+00 0.193D+01
 Gap=     0.360 Goal=   None    Shift=    0.000
 Gap=     0.122 Goal=   None    Shift=    0.000
 RMSDP=5.22D-05 MaxDP=4.65D-03 DE=-7.31D-05 OVMax= 2.16D-02

 Cycle  17  Pass 1  IDiag  1:
 RMSU=  3.96D-05    CP:  9.98D-01  2.58D+00  7.43D-01  5.64D-01  2.05D+00
                    CP:  3.00D+00  3.00D+00  3.00D+00  3.00D+00  3.00D+00
                    CP:  3.00D+00  3.00D+00  3.00D+00  2.67D+00  3.00D+00
                    CP:  2.61D+00
 E= -1827.37845505453     Delta-E=       -0.000112461890 Rises=F Damp=F
 DIIS: error= 1.29D-04 at cycle  17 NSaved=  17.
 NSaved=17 IEnMin=17 EnMin= -1827.37845505453     IErMin=17 ErrMin= 1.29D-04
 ErrMax= 1.29D-04  0.00D+00 EMaxC= 1.00D-01 BMatC= 2.09D-05 BMatP= 2.08D-05
 IDIUse=3 WtCom= 9.99D-01 WtEn= 1.29D-03
 Coeff-Com:  0.731D-04-0.605D-04-0.140D-02-0.427D-02 0.673D-02-0.644D-02
 Coeff-Com:  0.534D-01-0.175D-01-0.295D-01-0.151D+00 0.163D+00 0.291D+00
 Coeff-Com: -0.315D+00-0.209D+00-0.165D+01 0.213D+01 0.739D+00
 Coeff-En:   0.000D+00 0.000D+00 0.000D+00 0.000D+00 0.000D+00 0.000D+00
 Coeff-En:   0.000D+00 0.000D+00 0.000D+00 0.000D+00 0.000D+00 0.000D+00
 Coeff-En:   0.000D+00 0.000D+00 0.000D+00 0.000D+00 0.100D+01
 Coeff:      0.730D-04-0.605D-04-0.140D-02-0.426D-02 0.672D-02-0.643D-02
 Coeff:      0.533D-01-0.174D-01-0.295D-01-0.151D+00 0.163D+00 0.291D+00
 Coeff:     -0.314D+00-0.209D+00-0.165D+01 0.213D+01 0.739D+00
 Gap=     0.362 Goal=   None    Shift=    0.000
 Gap=     0.123 Goal=   None    Shift=    0.000
 RMSDP=5.27D-05 MaxDP=4.99D-03 DE=-1.12D-04 OVMax= 2.11D-02

 Cycle  18  Pass 1  IDiag  1:
 RMSU=  1.98D-05    CP:  9.98D-01  2.58D+00  7.34D-01  5.55D-01  2.03D+00
                    CP:  3.00D+00  3.00D+00  3.00D+00  3.00D+00  3.00D+00
                    CP:  3.00D+00  3.00D+00  3.00D+00  3.00D+00  3.00D+00
                    CP:  3.00D+00  2.03D+00
 E= -1827.37855449883     Delta-E=       -0.000099444302 Rises=F Damp=F
 DIIS: error= 1.17D-04 at cycle  18 NSaved=  18.
 NSaved=18 IEnMin=18 EnMin= -1827.37855449883     IErMin=18 ErrMin= 1.17D-04
 ErrMax= 1.17D-04  0.00D+00 EMaxC= 1.00D-01 BMatC= 1.89D-05 BMatP= 2.08D-05
 IDIUse=3 WtCom= 9.99D-01 WtEn= 1.17D-03
 Coeff-Com: -0.163D-03 0.321D-03 0.290D-02 0.321D-03 0.120D-01-0.345D-01
 Coeff-Com:  0.116D-01 0.494D-01 0.988D-01-0.215D+00-0.822D-02 0.234D+00
 Coeff-Com:  0.615D-01 0.864D-01-0.167D+01 0.719D+00 0.682D+00 0.970D+00
 Coeff-En:   0.000D+00 0.000D+00 0.000D+00 0.000D+00 0.000D+00 0.000D+00
 Coeff-En:   0.000D+00 0.000D+00 0.000D+00 0.000D+00 0.000D+00 0.000D+00
 Coeff-En:   0.000D+00 0.000D+00 0.000D+00 0.000D+00 0.000D+00 0.100D+01
 Coeff:     -0.163D-03 0.321D-03 0.290D-02 0.321D-03 0.119D-01-0.344D-01
 Coeff:      0.116D-01 0.494D-01 0.986D-01-0.215D+00-0.821D-02 0.234D+00
 Coeff:      0.614D-01 0.863D-01-0.167D+01 0.718D+00 0.681D+00 0.970D+00
 Gap=     0.364 Goal=   None    Shift=    0.000
 Gap=     0.122 Goal=   None    Shift=    0.000
 RMSDP=5.92D-05 MaxDP=5.43D-03 DE=-9.94D-05 OVMax= 2.59D-02

 Cycle  19  Pass 1  IDiag  1:
 RMSU=  1.71D-05    CP:  9.98D-01  2.58D+00  7.25D-01  5.47D-01  2.01D+00
                    CP:  3.00D+00  3.00D+00  3.00D+00  3.00D+00  3.00D+00
                    CP:  3.00D+00  3.00D+00  3.00D+00  3.00D+00  3.00D+00
                    CP:  3.00D+00  3.00D+00  2.14D+00
 E= -1827.37865428937     Delta-E=       -0.000099790544 Rises=F Damp=F
 DIIS: error= 1.14D-04 at cycle  19 NSaved=  19.
 NSaved=19 IEnMin=19 EnMin= -1827.37865428937     IErMin=19 ErrMin= 1.14D-04
 ErrMax= 1.14D-04  0.00D+00 EMaxC= 1.00D-01 BMatC= 1.41D-05 BMatP= 1.89D-05
 IDIUse=3 WtCom= 9.99D-01 WtEn= 1.14D-03
 Coeff-Com:  0.820D-03-0.110D-02 0.298D-02 0.120D-02 0.118D-01-0.238D-01
 Coeff-Com: -0.107D-01 0.707D-03 0.698D-01-0.333D-01-0.489D-01-0.210D-01
 Coeff-Com: -0.115D+00 0.709D+00-0.410D+00-0.370D+00-0.349D+00 0.830D-01
 Coeff-Com:  0.150D+01
 Coeff-En:   0.000D+00 0.000D+00 0.000D+00 0.000D+00 0.000D+00 0.000D+00
 Coeff-En:   0.000D+00 0.000D+00 0.000D+00 0.000D+00 0.000D+00 0.000D+00
 Coeff-En:   0.000D+00 0.000D+00 0.000D+00 0.000D+00 0.000D+00 0.000D+00
 Coeff-En:   0.100D+01
 Coeff:      0.819D-03-0.110D-02 0.298D-02 0.120D-02 0.118D-01-0.238D-01
 Coeff:     -0.107D-01 0.706D-03 0.697D-01-0.333D-01-0.488D-01-0.209D-01
 Coeff:     -0.115D+00 0.709D+00-0.410D+00-0.369D+00-0.348D+00 0.829D-01
 Coeff:      0.150D+01
 Gap=     0.366 Goal=   None    Shift=    0.000
 Gap=     0.123 Goal=   None    Shift=    0.000
 RMSDP=6.57D-05 MaxDP=6.47D-03 DE=-9.98D-05 OVMax= 3.05D-02

 Cycle  20  Pass 1  IDiag  1:
 RMSU=  3.45D-05    CP:  9.98D-01  2.58D+00  7.15D-01  5.38D-01  1.98D+00
                    CP:  3.00D+00  3.00D+00  3.00D+00  3.00D+00  3.00D+00
                    CP:  3.00D+00  3.00D+00  3.00D+00  3.00D+00  3.00D+00
                    CP:  3.00D+00  3.00D+00  3.00D+00  3.00D+00
 E= -1827.37875041308     Delta-E=       -0.000096123702 Rises=F Damp=F
 DIIS: error= 8.63D-05 at cycle  20 NSaved=  20.
 NSaved=20 IEnMin=20 EnMin= -1827.37875041308     IErMin=20 ErrMin= 8.63D-05
 ErrMax= 8.63D-05  0.00D+00 EMaxC= 1.00D-01 BMatC= 1.72D-05 BMatP= 1.41D-05
 IDIUse=1 WtCom= 1.00D+00 WtEn= 0.00D+00
 Coeff-Com:  0.993D-03-0.136D-02 0.649D-03-0.330D-03 0.106D-01-0.214D-02
 Coeff-Com:  0.757D-02-0.622D-01-0.118D-01 0.908D-01 0.445D-01-0.895D-01
 Coeff-Com: -0.417D+00 0.693D+00 0.656D-01 0.147D+00-0.505D+00-0.108D+01
 Coeff-Com:  0.134D+01 0.768D+00
 Coeff:      0.993D-03-0.136D-02 0.649D-03-0.330D-03 0.106D-01-0.214D-02
 Coeff:      0.757D-02-0.622D-01-0.118D-01 0.908D-01 0.445D-01-0.895D-01
 Coeff:     -0.417D+00 0.693D+00 0.656D-01 0.147D+00-0.505D+00-0.108D+01
 Coeff:      0.134D+01 0.768D+00
 Gap=     0.367 Goal=   None    Shift=    0.000
 Gap=     0.123 Goal=   None    Shift=    0.000
 RMSDP=3.11D-05 MaxDP=2.86D-03 DE=-9.61D-05 OVMax= 1.63D-02

 Cycle  21  Pass 1  IDiag  1:
 Restarting incremental Fock formation.
 E= -1827.37879451937     Delta-E=       -0.000044106295 Rises=F Damp=F
 DIIS: error= 7.80D-05 at cycle  21 NSaved=  20.
 NSaved=20 IEnMin=20 EnMin= -1827.37879451937     IErMin=20 ErrMin= 7.80D-05
 ErrMax= 7.80D-05  0.00D+00 EMaxC= 1.00D-01 BMatC= 1.69D-05 BMatP= 1.41D-05
 IDIUse=1 WtCom= 1.00D+00 WtEn= 0.00D+00
 Coeff-Com:  0.387D-04 0.132D-02 0.819D-03 0.113D-01-0.251D-01 0.231D-01
 Coeff-Com: -0.370D-01 0.417D-01-0.811D-02-0.511D-02 0.583D-01-0.347D+00
 Coeff-Com:  0.528D+00-0.683D+00 0.770D+00-0.220D+00-0.642D+00 0.572D+00
 Coeff-Com: -0.787D+00 0.175D+01
 Coeff:      0.387D-04 0.132D-02 0.819D-03 0.113D-01-0.251D-01 0.231D-01
 Coeff:     -0.370D-01 0.417D-01-0.811D-02-0.511D-02 0.583D-01-0.347D+00
 Coeff:      0.528D+00-0.683D+00 0.770D+00-0.220D+00-0.642D+00 0.572D+00
 Coeff:     -0.787D+00 0.175D+01
 Gap=     0.368 Goal=   None    Shift=    0.000
 Gap=     0.123 Goal=   None    Shift=    0.000
 RMSDP=4.86D-05 MaxDP=4.80D-03 DE=-4.41D-05 OVMax= 2.55D-02

 Cycle  22  Pass 1  IDiag  1:
 RMSU=  4.86D-05    CP:  1.00D+00
 E= -1827.37886052469     Delta-E=       -0.000066005317 Rises=F Damp=F
 DIIS: error= 7.32D-05 at cycle  22 NSaved=  20.
 NSaved=20 IEnMin=20 EnMin= -1827.37886052469     IErMin=20 ErrMin= 7.32D-05
 ErrMax= 7.32D-05  0.00D+00 EMaxC= 1.00D-01 BMatC= 1.47D-05 BMatP= 1.41D-05
 IDIUse=1 WtCom= 1.00D+00 WtEn= 0.00D+00
 Coeff-Com:  0.121D-02 0.308D-03 0.104D-01-0.237D-01 0.171D-01-0.215D-01
 Coeff-Com:  0.423D-01-0.299D-01-0.945D-02 0.838D-01-0.297D+00 0.480D+00
 Coeff-Com: -0.794D+00 0.746D+00-0.109D+00-0.339D+00 0.474D+00-0.127D+01
 Coeff-Com:  0.114D+01 0.904D+00
 Coeff:      0.121D-02 0.308D-03 0.104D-01-0.237D-01 0.171D-01-0.215D-01
 Coeff:      0.423D-01-0.299D-01-0.945D-02 0.838D-01-0.297D+00 0.480D+00
 Coeff:     -0.794D+00 0.746D+00-0.109D+00-0.339D+00 0.474D+00-0.127D+01
 Coeff:      0.114D+01 0.904D+00
 Gap=     0.369 Goal=   None    Shift=    0.000
 Gap=     0.123 Goal=   None    Shift=    0.000
 RMSDP=3.20D-05 MaxDP=3.05D-03 DE=-6.60D-05 OVMax= 1.78D-02

 Cycle  23  Pass 1  IDiag  1:
 RMSU=  5.65D-06    CP:  1.00D+00  1.65D+00
 E= -1827.37890415285     Delta-E=       -0.000043628165 Rises=F Damp=F
 DIIS: error= 6.97D-05 at cycle  23 NSaved=  20.
 NSaved=20 IEnMin=20 EnMin= -1827.37890415285     IErMin=20 ErrMin= 6.97D-05
 ErrMax= 6.97D-05  0.00D+00 EMaxC= 1.00D-01 BMatC= 1.41D-05 BMatP= 1.41D-05
 IDIUse=1 WtCom= 1.00D+00 WtEn= 0.00D+00
 Coeff-Com: -0.260D-02 0.578D-02-0.286D-02 0.119D-01-0.372D-02-0.432D-02
 Coeff-Com: -0.450D-01 0.190D-01 0.109D+00-0.195D+00 0.375D+00-0.762D+00
 Coeff-Com:  0.432D+00 0.376D-01 0.525D-01 0.738D+00-0.116D+01-0.750D+00
 Coeff-Com: -0.631D+00 0.278D+01
 Coeff:     -0.260D-02 0.578D-02-0.286D-02 0.119D-01-0.372D-02-0.432D-02
 Coeff:     -0.450D-01 0.190D-01 0.109D+00-0.195D+00 0.375D+00-0.762D+00
 Coeff:      0.432D+00 0.376D-01 0.525D-01 0.738D+00-0.116D+01-0.750D+00
 Coeff:     -0.631D+00 0.278D+01
 Gap=     0.371 Goal=   None    Shift=    0.000
 Gap=     0.124 Goal=   None    Shift=    0.000
 RMSDP=9.47D-05 MaxDP=9.06D-03 DE=-4.36D-05 OVMax= 5.37D-02

 Cycle  24  Pass 1  IDiag  1:
 RMSU=  2.94D-05    CP:  1.00D+00  3.00D+00  3.00D+00
 E= -1827.37902934436     Delta-E=       -0.000125191511 Rises=F Damp=F
 DIIS: error= 6.26D-05 at cycle  24 NSaved=  20.
 NSaved=20 IEnMin=20 EnMin= -1827.37902934436     IErMin=20 ErrMin= 6.26D-05
 ErrMax= 6.26D-05  0.00D+00 EMaxC= 1.00D-01 BMatC= 1.39D-05 BMatP= 1.41D-05
 IDIUse=1 WtCom= 1.00D+00 WtEn= 0.00D+00
 Coeff-Com:  0.960D-02 0.303D-02 0.119D-01-0.576D-01-0.268D-01 0.707D-01
 Coeff-Com:  0.527D-01-0.681D-02-0.364D+00 0.468D+00-0.512D+00 0.560D+00
 Coeff-Com: -0.926D-01-0.376D+00 0.743D+00-0.919D+00-0.688D-01-0.102D+01
 Coeff-Com:  0.223D+01 0.294D+00
 Coeff:      0.960D-02 0.303D-02 0.119D-01-0.576D-01-0.268D-01 0.707D-01
 Coeff:      0.527D-01-0.681D-02-0.364D+00 0.468D+00-0.512D+00 0.560D+00
 Coeff:     -0.926D-01-0.376D+00 0.743D+00-0.919D+00-0.688D-01-0.102D+01
 Coeff:      0.223D+01 0.294D+00
 Gap=     0.371 Goal=   None    Shift=    0.000
 Gap=     0.124 Goal=   None    Shift=    0.000
 RMSDP=8.13D-06 MaxDP=8.05D-04 DE=-1.25D-04 OVMax= 4.57D-03

 Cycle  25  Pass 1  IDiag  1:
 RMSU=  2.13D-06    CP:  1.00D+00  3.00D+00  3.00D+00  1.27D+00
 E= -1827.37903981457     Delta-E=       -0.000010470206 Rises=F Damp=F
 DIIS: error= 6.35D-05 at cycle  25 NSaved=  20.
 NSaved=20 IEnMin=20 EnMin= -1827.37903981457     IErMin=19 ErrMin= 6.26D-05
 ErrMax= 6.35D-05  0.00D+00 EMaxC= 1.00D-01 BMatC= 1.28D-05 BMatP= 1.39D-05
 IDIUse=1 WtCom= 1.00D+00 WtEn= 0.00D+00
 Coeff-Com: -0.157D-01-0.397D-02 0.191D-01 0.329D-01-0.569D-02-0.119D-01
 Coeff-Com: -0.708D-01-0.286D+00 0.768D+00-0.190D+00-0.101D+00-0.561D+00
 Coeff-Com: -0.331D+00 0.130D+01 0.200D+00-0.215D+00-0.310D+01 0.221D+01
 Coeff-Com: -0.370D+01 0.507D+01
 Coeff:     -0.157D-01-0.397D-02 0.191D-01 0.329D-01-0.569D-02-0.119D-01
 Coeff:     -0.708D-01-0.286D+00 0.768D+00-0.190D+00-0.101D+00-0.561D+00
 Coeff:     -0.331D+00 0.130D+01 0.200D+00-0.215D+00-0.310D+01 0.221D+01
 Coeff:     -0.370D+01 0.507D+01
 Gap=     0.372 Goal=   None    Shift=    0.000
 Gap=     0.125 Goal=   None    Shift=    0.000
 RMSDP=1.19D-04 MaxDP=1.20D-02 DE=-1.05D-05 OVMax= 6.78D-02

 Cycle  26  Pass 1  IDiag  1:
 RMSU=  6.89D-05    CP:  1.00D+00  3.00D+00  3.00D+00  3.00D+00  3.00D+00
 E= -1827.37918471168     Delta-E=       -0.000144897111 Rises=F Damp=F
 DIIS: error= 5.97D-05 at cycle  26 NSaved=  20.
 NSaved=20 IEnMin=20 EnMin= -1827.37918471168     IErMin=20 ErrMin= 5.97D-05
 ErrMax= 5.97D-05  0.00D+00 EMaxC= 1.00D-01 BMatC= 1.22D-05 BMatP= 1.28D-05
 IDIUse=1 WtCom= 1.00D+00 WtEn= 0.00D+00
 Coeff-Com:  0.131D-01-0.556D-02-0.188D-01-0.616D-01 0.488D-01 0.111D+00
 Coeff-Com: -0.683D-01 0.169D+00-0.545D+00 0.233D+00 0.444D+00-0.230D+00
 Coeff-Com:  0.342D+00-0.129D+01 0.139D+01-0.113D+01 0.141D+01-0.388D+01
 Coeff-Com:  0.280D+01 0.127D+01
 Coeff:      0.131D-01-0.556D-02-0.188D-01-0.616D-01 0.488D-01 0.111D+00
 Coeff:     -0.683D-01 0.169D+00-0.545D+00 0.233D+00 0.444D+00-0.230D+00
 Coeff:      0.342D+00-0.129D+01 0.139D+01-0.113D+01 0.141D+01-0.388D+01
 Coeff:      0.280D+01 0.127D+01
 Gap=     0.371 Goal=   None    Shift=    0.000
 Gap=     0.122 Goal=   None    Shift=    0.000
 RMSDP=3.31D-05 MaxDP=3.12D-03 DE=-1.45D-04 OVMax= 1.46D-02

 Cycle  27  Pass 1  IDiag  1:
 RMSU=  2.00D-05    CP:  1.00D+00  3.00D+00  3.00D+00  3.00D+00  2.17D+00
                    CP:  6.36D-01
 E= -1827.37916188694     Delta-E=        0.000022824743 Rises=F Damp=F
 DIIS: error= 8.77D-05 at cycle  27 NSaved=  20.
 NSaved=20 IEnMin=19 EnMin= -1827.37918471168     IErMin=19 ErrMin= 5.97D-05
 ErrMax= 8.77D-05  0.00D+00 EMaxC= 1.00D-01 BMatC= 2.78D-05 BMatP= 1.22D-05
 IDIUse=1 WtCom= 1.00D+00 WtEn= 0.00D+00
 Coeff-Com: -0.146D-02-0.722D-02-0.324D-01-0.197D-01 0.117D+00 0.387D-01
 Coeff-Com:  0.338D+00-0.551D+00-0.294D+00 0.242D+00 0.461D+00 0.451D+00
 Coeff-Com: -0.124D+01 0.279D-01 0.922D-03 0.141D+01-0.546D+01 0.304D+01
 Coeff-Com:  0.177D+01 0.714D+00
 Coeff:     -0.146D-02-0.722D-02-0.324D-01-0.197D-01 0.117D+00 0.387D-01
 Coeff:      0.338D+00-0.551D+00-0.294D+00 0.242D+00 0.461D+00 0.451D+00
 Coeff:     -0.124D+01 0.279D-01 0.922D-03 0.141D+01-0.546D+01 0.304D+01
 Coeff:      0.177D+01 0.714D+00
 Gap=     0.370 Goal=   None    Shift=    0.000
 Gap=     0.124 Goal=   None    Shift=    0.000
 RMSDP=1.47D-04 MaxDP=1.48D-02 DE= 2.28D-05 OVMax= 8.42D-02

 Cycle  28  Pass 1  IDiag  1:
 RMSU=  2.14D-05    CP:  1.00D+00  3.00D+00  3.00D+00  3.00D+00  3.00D+00
                    CP:  2.71D+00  2.14D+00
 E= -1827.37933123872     Delta-E=       -0.000169351779 Rises=F Damp=F
 DIIS: error= 5.35D-05 at cycle  28 NSaved=  20.
 NSaved=20 IEnMin=20 EnMin= -1827.37933123872     IErMin=20 ErrMin= 5.35D-05
 ErrMax= 5.35D-05  0.00D+00 EMaxC= 1.00D-01 BMatC= 1.08D-05 BMatP= 1.22D-05
 IDIUse=1 WtCom= 1.00D+00 WtEn= 0.00D+00
 Coeff-Com:  0.323D-03 0.303D-02-0.425D-01 0.824D-01-0.202D-01 0.271D+00
 Coeff-Com: -0.585D+00-0.207D+00 0.364D+00 0.587D+00 0.153D+00-0.166D+01
 Coeff-Com: -0.173D+00 0.202D+01 0.104D+01-0.538D+01 0.149D+01 0.139D+01
 Coeff-Com:  0.704D+00 0.966D+00
 Coeff:      0.323D-03 0.303D-02-0.425D-01 0.824D-01-0.202D-01 0.271D+00
 Coeff:     -0.585D+00-0.207D+00 0.364D+00 0.587D+00 0.153D+00-0.166D+01
 Coeff:     -0.173D+00 0.202D+01 0.104D+01-0.538D+01 0.149D+01 0.139D+01
 Coeff:      0.704D+00 0.966D+00
 Gap=     0.366 Goal=   None    Shift=    0.000
 Gap=     0.127 Goal=   None    Shift=    0.000
 RMSDP=1.15D-04 MaxDP=1.17D-02 DE=-1.69D-04 OVMax= 6.56D-02

 Cycle  29  Pass 1  IDiag  1:
 RMSU=  8.97D-05    CP:  9.99D-01  3.00D+00  3.00D+00  3.00D+00  3.00D+00
                    CP:  3.00D+00  3.00D+00  2.33D+00
 E= -1827.37943611536     Delta-E=       -0.000104876643 Rises=F Damp=F
 DIIS: error= 6.75D-05 at cycle  29 NSaved=  20.
 NSaved=20 IEnMin=20 EnMin= -1827.37943611536     IErMin=19 ErrMin= 5.35D-05
 ErrMax= 6.75D-05  0.00D+00 EMaxC= 1.00D-01 BMatC= 1.09D-05 BMatP= 1.08D-05
 IDIUse=1 WtCom= 1.00D+00 WtEn= 0.00D+00
 Coeff-Com:  0.147D-01 0.255D-02-0.428D-01-0.602D-01 0.526D-01-0.521D-01
 Coeff-Com: -0.569D-02-0.795D-01 0.131D+00-0.512D-01 0.211D+00 0.512D+00
 Coeff-Com: -0.133D+01 0.388D+00 0.155D+01-0.270D+00-0.115D+01 0.654D+00
 Coeff-Com: -0.123D+01 0.175D+01
 Coeff:      0.147D-01 0.255D-02-0.428D-01-0.602D-01 0.526D-01-0.521D-01
 Coeff:     -0.569D-02-0.795D-01 0.131D+00-0.512D-01 0.211D+00 0.512D+00
 Coeff:     -0.133D+01 0.388D+00 0.155D+01-0.270D+00-0.115D+01 0.654D+00
 Coeff:     -0.123D+01 0.175D+01
 Gap=     0.368 Goal=   None    Shift=    0.000
 Gap=     0.121 Goal=   None    Shift=    0.000
 RMSDP=6.80D-05 MaxDP=6.29D-03 DE=-1.05D-04 OVMax= 3.68D-02

 Cycle  30  Pass 1  IDiag  1:
 RMSU=  1.60D-05    CP:  1.00D+00  3.00D+00  3.00D+00  3.00D+00  3.00D+00
                    CP:  3.00D+00  3.00D+00  1.41D+00  2.98D-01
 E= -1827.37937728448     Delta-E=        0.000058830880 Rises=F Damp=F
 DIIS: error= 9.60D-05 at cycle  30 NSaved=  20.
 NSaved=20 IEnMin=19 EnMin= -1827.37943611536     IErMin=18 ErrMin= 5.35D-05
 ErrMax= 9.60D-05  0.00D+00 EMaxC= 1.00D-01 BMatC= 3.33D-05 BMatP= 1.08D-05
 IDIUse=1 WtCom= 1.00D+00 WtEn= 0.00D+00
 Coeff-Com:  0.161D-01-0.337D-01-0.228D-01 0.360D-01-0.714D-02 0.490D-01
 Coeff-Com: -0.360D+00 0.598D+00-0.181D+00 0.287D+00-0.523D+00-0.232D+01
 Coeff-Com:  0.136D+01 0.340D+01-0.618D+00-0.194D+01 0.539D-01-0.198D+01
 Coeff-Com:  0.235D+01 0.841D+00
 Coeff:      0.161D-01-0.337D-01-0.228D-01 0.360D-01-0.714D-02 0.490D-01
 Coeff:     -0.360D+00 0.598D+00-0.181D+00 0.287D+00-0.523D+00-0.232D+01
 Coeff:      0.136D+01 0.340D+01-0.618D+00-0.194D+01 0.539D-01-0.198D+01
 Coeff:      0.235D+01 0.841D+00
 Gap=     0.361 Goal=   None    Shift=    0.000
 Gap=     0.128 Goal=   None    Shift=    0.000
 RMSDP=2.32D-04 MaxDP=2.32D-02 DE= 5.88D-05 OVMax= 1.30D-01

 Cycle  31  Pass 1  IDiag  1:
 RMSU=  5.72D-05    CP:  9.99D-01  3.00D+00  3.00D+00  3.00D+00  3.00D+00
                    CP:  3.00D+00  3.00D+00  3.00D+00  2.69D+00  9.11D-01
 E= -1827.37951189914     Delta-E=       -0.000134614661 Rises=F Damp=F
 DIIS: error= 1.57D-04 at cycle  31 NSaved=  20.
 NSaved=20 IEnMin=20 EnMin= -1827.37951189914     IErMin=17 ErrMin= 5.35D-05
 ErrMax= 1.57D-04  0.00D+00 EMaxC= 1.00D-01 BMatC= 8.22D-05 BMatP= 1.08D-05
 IDIUse=1 WtCom= 1.00D+00 WtEn= 0.00D+00
 Coeff-Com: -0.163D-01 0.774D-01-0.764D-01-0.143D-01-0.464D-01-0.110D+00
 Coeff-Com:  0.255D+00-0.650D-01 0.303D+00-0.345D+00-0.118D+01 0.454D+00
 Coeff-Com:  0.278D+01-0.115D+01-0.113D+01 0.230D+00-0.735D+00 0.607D+00
 Coeff-Com:  0.683D+00 0.471D+00
 Coeff:     -0.163D-01 0.774D-01-0.764D-01-0.143D-01-0.464D-01-0.110D+00
 Coeff:      0.255D+00-0.650D-01 0.303D+00-0.345D+00-0.118D+01 0.454D+00
 Coeff:      0.278D+01-0.115D+01-0.113D+01 0.230D+00-0.735D+00 0.607D+00
 Coeff:      0.683D+00 0.471D+00
 Gap=     0.363 Goal=   None    Shift=    0.000
 Gap=     0.128 Goal=   None    Shift=    0.000
 RMSDP=6.12D-05 MaxDP=5.82D-03 DE=-1.35D-04 OVMax= 3.40D-02

 Cycle  32  Pass 1  IDiag  1:
 RMSU=  9.53D-06    CP:  9.99D-01  3.00D+00  3.00D+00  3.00D+00  3.00D+00
                    CP:  3.00D+00  3.00D+00  3.00D+00  2.08D+00  1.04D+00
                    CP:  5.56D-01
 E= -1827.37951147787     Delta-E=        0.000000421271 Rises=F Damp=F
 DIIS: error= 5.25D-05 at cycle  32 NSaved=  20.
 NSaved=20 IEnMin=19 EnMin= -1827.37951189914     IErMin=20 ErrMin= 5.25D-05
 ErrMax= 5.25D-05  0.00D+00 EMaxC= 1.00D-01 BMatC= 8.05D-06 BMatP= 1.08D-05
 IDIUse=1 WtCom= 1.00D+00 WtEn= 0.00D+00
 Coeff-Com:  0.718D-01-0.134D+00-0.926D-01 0.119D-01 0.160D+00 0.131D+00
 Coeff-Com: -0.665D-01-0.280D+00-0.976D-01-0.397D+00 0.545D+00 0.870D+00
 Coeff-Com: -0.736D+00-0.429D+00 0.382D+00-0.833D-01-0.205D+00 0.153D+00
 Coeff-Com:  0.500D-01 0.115D+01
 Coeff:      0.718D-01-0.134D+00-0.926D-01 0.119D-01 0.160D+00 0.131D+00
 Coeff:     -0.665D-01-0.280D+00-0.976D-01-0.397D+00 0.545D+00 0.870D+00
 Coeff:     -0.736D+00-0.429D+00 0.382D+00-0.833D-01-0.205D+00 0.153D+00
 Coeff:      0.500D-01 0.115D+01
 Gap=     0.360 Goal=   None    Shift=    0.000
 Gap=     0.131 Goal=   None    Shift=    0.000
 RMSDP=6.96D-05 MaxDP=6.94D-03 DE= 4.21D-07 OVMax= 3.90D-02

 Cycle  33  Pass 1  IDiag  1:
 RMSU=  3.12D-06    CP:  9.99D-01  3.00D+00  3.00D+00  3.00D+00  3.00D+00
                    CP:  3.00D+00  3.00D+00  3.00D+00  2.77D+00  1.21D+00
                    CP:  1.08D+00  1.25D-01
 E= -1827.37952444663     Delta-E=       -0.000012968761 Rises=F Damp=F
 DIIS: error= 1.26D-04 at cycle  33 NSaved=  20.
 NSaved=20 IEnMin=20 EnMin= -1827.37952444663     IErMin=19 ErrMin= 5.25D-05
 ErrMax= 1.26D-04  0.00D+00 EMaxC= 1.00D-01 BMatC= 5.32D-05 BMatP= 8.05D-06
 IDIUse=1 WtCom= 1.00D+00 WtEn= 0.00D+00
 Coeff-Com: -0.823D-01 0.426D-01-0.488D-02 0.696D-01 0.369D-01-0.675D-01
 Coeff-Com:  0.137D-01-0.188D+00-0.185D+00 0.113D+00 0.551D+00-0.455D+00
 Coeff-Com: -0.261D+00 0.332D+00 0.101D+00-0.281D+00 0.241D+00-0.453D+00
 Coeff-Com:  0.676D+00 0.803D+00
 Coeff:     -0.823D-01 0.426D-01-0.488D-02 0.696D-01 0.369D-01-0.675D-01
 Coeff:      0.137D-01-0.188D+00-0.185D+00 0.113D+00 0.551D+00-0.455D+00
 Coeff:     -0.261D+00 0.332D+00 0.101D+00-0.281D+00 0.241D+00-0.453D+00
 Coeff:      0.676D+00 0.803D+00
 Gap=     0.360 Goal=   None    Shift=    0.000
 Gap=     0.131 Goal=   None    Shift=    0.000
 RMSDP=2.47D-06 MaxDP=2.09D-04 DE=-1.30D-05 OVMax= 7.95D-04

 Cycle  34  Pass 1  IDiag  1:
 RMSU=  1.92D-06    CP:  9.99D-01  3.00D+00  3.00D+00  3.00D+00  3.00D+00
                    CP:  3.00D+00  3.00D+00  3.00D+00  2.78D+00  1.21D+00
                    CP:  1.07D+00  9.17D-02  1.47D+00
 E= -1827.37952581610     Delta-E=       -0.000001369473 Rises=F Damp=F
 DIIS: error= 1.23D-04 at cycle  34 NSaved=  20.
 NSaved=20 IEnMin=20 EnMin= -1827.37952581610     IErMin=18 ErrMin= 5.25D-05
 ErrMax= 1.23D-04  0.00D+00 EMaxC= 1.00D-01 BMatC= 5.02D-05 BMatP= 8.05D-06
 IDIUse=1 WtCom= 1.00D+00 WtEn= 0.00D+00
 Coeff-Com:  0.463D-01-0.132D+00-0.522D-02 0.166D+00-0.447D-01-0.271D-01
 Coeff-Com: -0.299D+00 0.255D-01 0.978D-01 0.381D+00-0.315D+00-0.352D+00
 Coeff-Com:  0.280D+00 0.423D-01 0.209D-01 0.321D+00-0.719D+00 0.320D+00
 Coeff-Com:  0.237D+00 0.956D+00
 Coeff:      0.463D-01-0.132D+00-0.522D-02 0.166D+00-0.447D-01-0.271D-01
 Coeff:     -0.299D+00 0.255D-01 0.978D-01 0.381D+00-0.315D+00-0.352D+00
 Coeff:      0.280D+00 0.423D-01 0.209D-01 0.321D+00-0.719D+00 0.320D+00
 Coeff:      0.237D+00 0.956D+00
 Gap=     0.360 Goal=   None    Shift=    0.000
 Gap=     0.131 Goal=   None    Shift=    0.000
 RMSDP=2.27D-06 MaxDP=2.14D-04 DE=-1.37D-06 OVMax= 9.99D-04

 Cycle  35  Pass 1  IDiag  1:
 RMSU=  5.57D-07    CP:  9.99D-01  3.00D+00  3.00D+00  3.00D+00  3.00D+00
                    CP:  3.00D+00  3.00D+00  3.00D+00  2.79D+00  1.21D+00
                    CP:  1.07D+00  1.82D-02  1.95D+00  1.06D+00
 E= -1827.37952736221     Delta-E=       -0.000001546108 Rises=F Damp=F
 DIIS: error= 1.19D-04 at cycle  35 NSaved=  20.
 NSaved=20 IEnMin=20 EnMin= -1827.37952736221     IErMin=17 ErrMin= 5.25D-05
 ErrMax= 1.19D-04  0.00D+00 EMaxC= 1.00D-01 BMatC= 4.65D-05 BMatP= 8.05D-06
 IDIUse=1 WtCom= 1.00D+00 WtEn= 0.00D+00
 Coeff-Com: -0.117D+00-0.309D-02 0.319D+00-0.119D+00-0.141D+00-0.372D+00
 Coeff-Com: -0.248D-01 0.253D+00 0.649D+00-0.357D+00-0.505D+00 0.213D+00
 Coeff-Com: -0.159D+00 0.221D+00 0.389D+00-0.544D+00 0.271D+00-0.511D+00
 Coeff-Com: -0.135D+00 0.167D+01
 Coeff:     -0.117D+00-0.309D-02 0.319D+00-0.119D+00-0.141D+00-0.372D+00
 Coeff:     -0.248D-01 0.253D+00 0.649D+00-0.357D+00-0.505D+00 0.213D+00
 Coeff:     -0.159D+00 0.221D+00 0.389D+00-0.544D+00 0.271D+00-0.511D+00
 Coeff:     -0.135D+00 0.167D+01
 Gap=     0.360 Goal=   None    Shift=    0.000
 Gap=     0.131 Goal=   None    Shift=    0.000
 RMSDP=1.03D-05 MaxDP=1.12D-03 DE=-1.55D-06 OVMax= 5.75D-03

 Cycle  36  Pass 1  IDiag  1:
 RMSU=  4.32D-07    CP:  9.99D-01  3.00D+00  3.00D+00  3.00D+00  3.00D+00
                    CP:  3.00D+00  3.00D+00  3.00D+00  2.89D+00  1.21D+00
                    CP:  1.13D+00 -2.70D-01  2.79D+00  1.77D+00  2.19D+00
 E= -1827.37952755515     Delta-E=       -0.000000192937 Rises=F Damp=F
 DIIS: error= 1.26D-04 at cycle  36 NSaved=  20.
 NSaved=20 IEnMin=20 EnMin= -1827.37952755515     IErMin=16 ErrMin= 5.25D-05
 ErrMax= 1.26D-04  0.00D+00 EMaxC= 1.00D-01 BMatC= 5.43D-05 BMatP= 8.05D-06
 IDIUse=1 WtCom= 1.00D+00 WtEn= 0.00D+00
 Coeff-Com: -0.209D-01 0.159D+00-0.902D-01-0.984D-01-0.254D+00-0.218D+00
 Coeff-Com:  0.300D+00 0.867D+00-0.381D+00-0.565D+00 0.135D+00-0.257D+00
 Coeff-Com:  0.227D+00 0.386D+00-0.330D+00 0.526D+00-0.782D+00-0.107D+01
 Coeff-Com:  0.147D+01 0.999D+00
 Coeff:     -0.209D-01 0.159D+00-0.902D-01-0.984D-01-0.254D+00-0.218D+00
 Coeff:      0.300D+00 0.867D+00-0.381D+00-0.565D+00 0.135D+00-0.257D+00
 Coeff:      0.227D+00 0.386D+00-0.330D+00 0.526D+00-0.782D+00-0.107D+01
 Coeff:      0.147D+01 0.999D+00
 Gap=     0.360 Goal=   None    Shift=    0.000
 Gap=     0.129 Goal=   None    Shift=    0.000
 RMSDP=1.83D-05 MaxDP=1.68D-03 DE=-1.93D-07 OVMax= 9.47D-03

 Cycle  37  Pass 1  IDiag  1:
 RMSU=  1.88D-06    CP:  9.99D-01  3.00D+00  3.00D+00  3.00D+00  3.00D+00
                    CP:  3.00D+00  3.00D+00  3.00D+00  2.71D+00  1.27D+00
                    CP:  1.02D+00  3.01D-01  3.00D+00  1.81D+00  3.00D+00
                    CP:  2.85D-01
 E= -1827.37953585349     Delta-E=       -0.000008298338 Rises=F Damp=F
 DIIS: error= 6.46D-05 at cycle  37 NSaved=  20.
 NSaved=20 IEnMin=20 EnMin= -1827.37953585349     IErMin=15 ErrMin= 5.25D-05
 ErrMax= 6.46D-05  0.00D+00 EMaxC= 1.00D-01 BMatC= 1.34D-05 BMatP= 8.05D-06
 IDIUse=1 WtCom= 1.00D+00 WtEn= 0.00D+00
 Coeff-Com: -0.164D+00 0.833D-01 0.568D-01 0.369D+00-0.466D+00-0.480D-01
 Coeff-Com: -0.326D+00 0.427D+00-0.582D-02 0.180D+00-0.238D+00-0.209D+00
 Coeff-Com:  0.118D+00-0.107D+00 0.439D+00 0.587D+00-0.144D+01-0.386D+00
 Coeff-Com:  0.689D+00 0.144D+01
 Coeff:     -0.164D+00 0.833D-01 0.568D-01 0.369D+00-0.466D+00-0.480D-01
 Coeff:     -0.326D+00 0.427D+00-0.582D-02 0.180D+00-0.238D+00-0.209D+00
 Coeff:      0.118D+00-0.107D+00 0.439D+00 0.587D+00-0.144D+01-0.386D+00
 Coeff:      0.689D+00 0.144D+01
 Gap=     0.360 Goal=   None    Shift=    0.000
 Gap=     0.129 Goal=   None    Shift=    0.000
 RMSDP=2.96D-05 MaxDP=3.24D-03 DE=-8.30D-06 OVMax= 1.70D-02

 Cycle  38  Pass 1  IDiag  1:
 RMSU=  4.92D-06    CP:  9.99D-01  3.00D+00  3.00D+00  3.00D+00  3.00D+00
                    CP:  3.00D+00  3.00D+00  3.00D+00  3.00D+00  1.65D+00
                    CP:  1.21D+00 -2.60D-01  3.00D+00  1.69D+00  3.00D+00
                    CP:  1.74D+00  2.23D+00
 E= -1827.37954356702     Delta-E=       -0.000007713534 Rises=F Damp=F
 DIIS: error= 5.91D-05 at cycle  38 NSaved=  20.
 NSaved=20 IEnMin=20 EnMin= -1827.37954356702     IErMin=14 ErrMin= 5.25D-05
 ErrMax= 5.91D-05  0.00D+00 EMaxC= 1.00D-01 BMatC= 1.17D-05 BMatP= 8.05D-06
 IDIUse=1 WtCom= 1.00D+00 WtEn= 0.00D+00
 Coeff-Com: -0.380D-02 0.742D-01 0.380D-01-0.100D+00-0.117D+00-0.654D+00
 Coeff-Com:  0.468D+00 0.251D+00 0.595D-01-0.617D-01-0.120D+00 0.877D-01
 Coeff-Com: -0.602D-01-0.199D+00 0.809D+00-0.198D-01-0.957D+00-0.794D+00
 Coeff-Com:  0.952D+00 0.135D+01
 Coeff:     -0.380D-02 0.742D-01 0.380D-01-0.100D+00-0.117D+00-0.654D+00
 Coeff:      0.468D+00 0.251D+00 0.595D-01-0.617D-01-0.120D+00 0.877D-01
 Coeff:     -0.602D-01-0.199D+00 0.809D+00-0.198D-01-0.957D+00-0.794D+00
 Coeff:      0.952D+00 0.135D+01
 Gap=     0.358 Goal=   None    Shift=    0.000
 Gap=     0.130 Goal=   None    Shift=    0.000
 RMSDP=5.34D-05 MaxDP=5.39D-03 DE=-7.71D-06 OVMax= 3.03D-02

 Cycle  39  Pass 1  IDiag  1:
 RMSU=  4.53D-05    CP:  9.99D-01  3.00D+00  3.00D+00  3.00D+00  3.00D+00
                    CP:  3.00D+00  3.00D+00  3.00D+00  3.00D+00  1.97D+00
                    CP:  1.65D+00 -1.15D+00  3.00D+00  2.06D+00  3.00D+00
                    CP:  3.00D+00  3.00D+00  2.05D+00
 E= -1827.37953943118     Delta-E=        0.000004135843 Rises=F Damp=F
 DIIS: error= 1.03D-04 at cycle  39 NSaved=  20.
 NSaved=20 IEnMin=19 EnMin= -1827.37954356702     IErMin=13 ErrMin= 5.25D-05
 ErrMax= 1.03D-04  0.00D+00 EMaxC= 1.00D-01 BMatC= 3.73D-05 BMatP= 8.05D-06
 IDIUse=1 WtCom= 1.00D+00 WtEn= 0.00D+00
 Coeff-Com:  0.271D-01-0.109D+00 0.299D+00-0.177D+00-0.540D+00 0.152D+00
 Coeff-Com:  0.266D+00-0.215D-01 0.273D+00-0.213D+00 0.908D-01-0.254D+00
 Coeff-Com:  0.679D-01 0.107D+00 0.933D+00-0.499D+00-0.138D+01 0.483D+00
 Coeff-Com:  0.765D+00 0.728D+00
 Coeff:      0.271D-01-0.109D+00 0.299D+00-0.177D+00-0.540D+00 0.152D+00
 Coeff:      0.266D+00-0.215D-01 0.273D+00-0.213D+00 0.908D-01-0.254D+00
 Coeff:      0.679D-01 0.107D+00 0.933D+00-0.499D+00-0.138D+01 0.483D+00
 Coeff:      0.765D+00 0.728D+00
 Gap=     0.358 Goal=   None    Shift=    0.000
 Gap=     0.129 Goal=   None    Shift=    0.000
 RMSDP=1.33D-05 MaxDP=1.11D-03 DE= 4.14D-06 OVMax= 6.88D-03

 Cycle  40  Pass 1  IDiag  1:
 RMSU=  1.57D-06    CP:  9.99D-01  3.00D+00  3.00D+00  3.00D+00  3.00D+00
                    CP:  3.00D+00  3.00D+00  3.00D+00  3.00D+00  2.02D+00
                    CP:  1.54D+00 -8.64D-01  3.00D+00  2.28D+00  3.00D+00
                    CP:  3.00D+00  3.00D+00  2.16D+00  7.56D-01
 E= -1827.37954701159     Delta-E=       -0.000007580417 Rises=F Damp=F
 DIIS: error= 6.02D-05 at cycle  40 NSaved=  20.
 NSaved=20 IEnMin=20 EnMin= -1827.37954701159     IErMin=12 ErrMin= 5.25D-05
 ErrMax= 6.02D-05  0.00D+00 EMaxC= 1.00D-01 BMatC= 1.31D-05 BMatP= 8.05D-06
 IDIUse=1 WtCom= 1.00D+00 WtEn= 0.00D+00
 Coeff-Com: -0.465D-01 0.110D+00-0.182D-01-0.123D+00-0.603D-01 0.553D-01
 Coeff-Com: -0.304D-01 0.136D+00-0.323D-01 0.330D-01-0.157D+00 0.202D+00
 Coeff-Com: -0.235D+00 0.508D+00-0.431D-01-0.746D+00 0.159D+00 0.161D+00
 Coeff-Com: -0.143D+00 0.127D+01
 Coeff:     -0.465D-01 0.110D+00-0.182D-01-0.123D+00-0.603D-01 0.553D-01
 Coeff:     -0.304D-01 0.136D+00-0.323D-01 0.330D-01-0.157D+00 0.202D+00
 Coeff:     -0.235D+00 0.508D+00-0.431D-01-0.746D+00 0.159D+00 0.161D+00
 Coeff:     -0.143D+00 0.127D+01
 Gap=     0.358 Goal=   None    Shift=    0.000
 Gap=     0.128 Goal=   None    Shift=    0.000
 RMSDP=4.64D-06 MaxDP=4.95D-04 DE=-7.58D-06 OVMax= 2.47D-03

 Cycle  41  Pass 1  IDiag  1:
 Restarting incremental Fock formation.
 E= -1827.37954933090     Delta-E=       -0.000002319305 Rises=F Damp=F
 DIIS: error= 3.86D-05 at cycle  41 NSaved=  20.
 NSaved=20 IEnMin=20 EnMin= -1827.37954933090     IErMin=20 ErrMin= 3.86D-05
 ErrMax= 3.86D-05  0.00D+00 EMaxC= 1.00D-01 BMatC= 5.32D-06 BMatP= 8.05D-06
 IDIUse=1 WtCom= 1.00D+00 WtEn= 0.00D+00
 Coeff-Com: -0.837D-01 0.887D-01 0.802D-01-0.565D-01-0.578D-01-0.238D-02
 Coeff-Com: -0.437D-01 0.381D-01 0.644D-02-0.130D-03 0.176D+00-0.174D+00
 Coeff-Com: -0.323D-01 0.138D-01-0.151D-01 0.451D-01-0.652D-01-0.607D+00
 Coeff-Com:  0.699D+00 0.991D+00
 Coeff:     -0.837D-01 0.887D-01 0.802D-01-0.565D-01-0.578D-01-0.238D-02
 Coeff:     -0.437D-01 0.381D-01 0.644D-02-0.130D-03 0.176D+00-0.174D+00
 Coeff:     -0.323D-01 0.138D-01-0.151D-01 0.451D-01-0.652D-01-0.607D+00
 Coeff:      0.699D+00 0.991D+00
 Gap=     0.359 Goal=   None    Shift=    0.000
 Gap=     0.127 Goal=   None    Shift=    0.000
 RMSDP=3.21D-06 MaxDP=3.37D-04 DE=-2.32D-06 OVMax= 7.54D-04

 Cycle  42  Pass 1  IDiag  1:
 RMSU=  3.21D-06    CP:  1.00D+00
 E= -1827.37955077330     Delta-E=       -0.000001442401 Rises=F Damp=F
 DIIS: error= 1.33D-05 at cycle  42 NSaved=  20.
 NSaved=20 IEnMin=20 EnMin= -1827.37955077330     IErMin=20 ErrMin= 1.33D-05
 ErrMax= 1.33D-05  0.00D+00 EMaxC= 1.00D-01 BMatC= 6.41D-07 BMatP= 5.32D-06
 IDIUse=1 WtCom= 1.00D+00 WtEn= 0.00D+00
 Coeff-Com:  0.757D-02-0.105D+00 0.708D-01 0.254D-01 0.197D-01-0.249D-01
 Coeff-Com:  0.179D-02 0.112D-01-0.207D-01-0.581D-01 0.810D-01 0.807D-02
 Coeff-Com: -0.685D-01 0.853D-01 0.157D-01 0.480D-01-0.114D+00-0.235D+00
 Coeff-Com: -0.631D-01 0.131D+01
 Coeff:      0.757D-02-0.105D+00 0.708D-01 0.254D-01 0.197D-01-0.249D-01
 Coeff:      0.179D-02 0.112D-01-0.207D-01-0.581D-01 0.810D-01 0.807D-02
 Coeff:     -0.685D-01 0.853D-01 0.157D-01 0.480D-01-0.114D+00-0.235D+00
 Coeff:     -0.631D-01 0.131D+01
 Gap=     0.359 Goal=   None    Shift=    0.000
 Gap=     0.127 Goal=   None    Shift=    0.000
 RMSDP=2.12D-06 MaxDP=1.36D-04 DE=-1.44D-06 OVMax= 9.08D-04

 Cycle  43  Pass 1  IDiag  1:
 RMSU=  9.82D-07    CP:  1.00D+00  1.59D+00
 E= -1827.37955097502     Delta-E=       -0.000000201719 Rises=F Damp=F
 DIIS: error= 3.16D-06 at cycle  43 NSaved=  20.
 NSaved=20 IEnMin=20 EnMin= -1827.37955097502     IErMin=20 ErrMin= 3.16D-06
 ErrMax= 3.16D-06  0.00D+00 EMaxC= 1.00D-01 BMatC= 3.88D-08 BMatP= 6.41D-07
 IDIUse=1 WtCom= 1.00D+00 WtEn= 0.00D+00
[...]
    14  F(19)              0.00050       2.10988       0.75286       0.70378
    15  F(19)             -0.00001      -0.06140      -0.02191      -0.02048
    16  C(13)             -0.00103      -1.15476      -0.41205      -0.38519
    17  F(19)              0.00083       3.48731       1.24436       1.16324
    18  O(17)             -0.00006       0.03904       0.01393       0.01302
    19  C(13)              0.00000      -0.00019      -0.00007      -0.00006
    20  F(19)             -0.00001      -0.05084      -0.01814      -0.01696
    21  F(19)              0.00000      -0.01186      -0.00423      -0.00396
    22  F(19)             -0.00001      -0.03732      -0.01332      -0.01245
    23  C(13)              0.00003       0.03449       0.01231       0.01150
    24  F(19)              0.00002       0.10111       0.03608       0.03373
    25  F(19)             -0.00004      -0.16722      -0.05967      -0.05578
    26  F(19)             -0.00001      -0.03488      -0.01245      -0.01164
    27  C(13)             -0.02638     -29.66007     -10.58345      -9.89353
    28  O(17)              0.02788     -16.90307      -6.03143      -5.63826
    29  H(1)               0.00610      27.28695       9.73666       9.10195
    30  H(1)              -0.00009      -0.40386      -0.14411      -0.13471
    31  H(1)               0.00008       0.35062       0.12511       0.11696
    32  H(1)               0.00010       0.44603       0.15916       0.14878
    33  H(1)              -0.00084      -3.76538      -1.34358      -1.25600
    34  H(1)               0.00929      41.53997      14.82249      13.85624
    35  H(1)               0.00688      30.73945      10.96860      10.25358
    36  H(1)               0.00447      19.97118       7.12621       6.66167
    37  H(1)               0.00131       5.86618       2.09320       1.95675
    38  H(1)               0.00093       4.16427       1.48592       1.38905
    39  H(1)              -0.00040      -1.76733      -0.63063      -0.58952
    40  H(1)               0.00008       0.37140       0.13252       0.12388
 --------------------------------------------------------
       Center         ----  Spin Dipole Couplings  ----
                      3XX-RR        3YY-RR        3ZZ-RR
 --------------------------------------------------------
     1   Atom       -0.000072      0.013856     -0.013784
     2   Atom       -0.039020      0.032410      0.006610
     3   Atom       -0.046524     -0.007130      0.053653
     4   Atom       -0.501680     -0.339936      0.841616
     5   Atom        0.020955      0.025295     -0.046250
     6   Atom       -0.072349      0.291519     -0.219170
     7   Atom       -0.177896     -0.141886      0.319783
     8   Atom       -0.015821     -0.008509      0.024330
     9   Atom       -0.017766     -0.014920      0.032686
    10   Atom        0.029449      0.016345     -0.045794
    11   Atom       -0.151313     -0.105519      0.256833
    12   Atom        0.029000      0.018360     -0.047361
    13   Atom        0.000549      0.000667     -0.001217
    14   Atom        0.011423     -0.011345     -0.000077
    15   Atom       -0.000551      0.003994     -0.003443
    16   Atom        0.002362     -0.000140     -0.002222
    17   Atom        0.012664     -0.005896     -0.006768
    18   Atom        0.000180     -0.000280      0.000100
    19   Atom        0.001259     -0.000600     -0.000659
    20   Atom        0.000717     -0.000338     -0.000379
    21   Atom        0.001074     -0.000580     -0.000494
    22   Atom        0.001879     -0.000810     -0.001069
    23   Atom        0.001159     -0.000226     -0.000932
    24   Atom        0.001902     -0.000895     -0.001007
    25   Atom        0.000486      0.000414     -0.000900
    26   Atom        0.000628     -0.000245     -0.000383
    27   Atom        0.070448      0.030756     -0.101203
    28   Atom       -0.471854     -0.211514      0.683368
    29   Atom       -0.001667      0.000217      0.001450
    30   Atom       -0.001731      0.002901     -0.001170
    31   Atom        0.003377     -0.001025     -0.002352
    32   Atom        0.003060      0.001602     -0.004662
    33   Atom       -0.000829     -0.000469      0.001298
    34   Atom        0.012312     -0.006507     -0.005806
    35   Atom       -0.001303      0.003197     -0.001895
    36   Atom        0.003373      0.001281     -0.004654
    37   Atom       -0.000245      0.004019     -0.003774
    38   Atom       -0.001997      0.002717     -0.000720
    39   Atom       -0.000491     -0.000691      0.001182
    40   Atom       -0.000259     -0.001861      0.002120
 --------------------------------------------------------
                        XY            XZ            YZ
 --------------------------------------------------------
     1   Atom       -0.020179      0.003370     -0.004969
     2   Atom       -0.055461      0.047979     -0.088078
     3   Atom       -0.018828      0.012690     -0.062522
     4   Atom       -0.149830      0.355055     -0.594787
     5   Atom        0.008847      0.002152      0.040595
     6   Atom       -0.041988      0.023841     -0.124185
     7   Atom       -0.044268      0.132724     -0.174412
     8   Atom        0.002903     -0.005455     -0.004239
     9   Atom        0.002305      0.009448      0.014290
    10   Atom       -0.005715     -0.013011      0.016582
    11   Atom        0.007318     -0.045342     -0.140622
    12   Atom        0.006333     -0.022121      0.029707
    13   Atom       -0.001917     -0.001680      0.001628
    14   Atom       -0.004924     -0.011595      0.003867
    15   Atom        0.005160     -0.000441      0.000981
    16   Atom       -0.001079     -0.000631      0.000501
    17   Atom       -0.002526      0.002836     -0.000445
    18   Atom       -0.000468     -0.000818      0.000344
    19   Atom        0.000173     -0.000310      0.000017
    20   Atom        0.000140     -0.000076      0.000021
    21   Atom        0.000014     -0.000483     -0.000049
    22   Atom        0.000846     -0.000297     -0.000053
    23   Atom       -0.000739      0.000748      0.000185
    24   Atom       -0.000285      0.001025      0.000239
    25   Atom       -0.001396      0.001330      0.000664
    26   Atom       -0.000470      0.000695     -0.000111
    27   Atom        0.035693     -0.025552      0.079022
    28   Atom       -0.051564      0.117389     -0.560986
    29   Atom       -0.002697      0.001218     -0.002689
    30   Atom       -0.002163      0.000401      0.002595
    31   Atom       -0.002487     -0.002178     -0.000219
    32   Atom        0.001266     -0.002476     -0.008118
    33   Atom       -0.000988      0.009868      0.001345
    34   Atom        0.003519     -0.007722      0.000886
    35   Atom        0.003648      0.000281      0.009677
    36   Atom        0.003055     -0.002243      0.000027
    37   Atom       -0.001887     -0.000603      0.000858
    38   Atom        0.002263      0.000730      0.001642
    39   Atom       -0.000981      0.003380      0.001050
    40   Atom        0.000814     -0.001288      0.002145
 --------------------------------------------------------


 ---------------------------------------------------------------------------------
              Anisotropic Spin Dipole Couplings in Principal Axis System
 ---------------------------------------------------------------------------------

       Atom             a.u.   MegaHertz   Gauss  10(-4) cm-1        Axes

              Baa    -0.0147    -1.973    -0.704    -0.658  0.3284  0.3823  0.8637
     1 C(13)  Bbb    -0.0144    -1.929    -0.688    -0.644  0.7498  0.4506 -0.4846
              Bcc     0.0291     3.902     1.392     1.302 -0.5744  0.8067 -0.1387
 
              Baa    -0.0695    -9.328    -3.328    -3.111 -0.1292  0.6072  0.7840
     2 C(13)  Bbb    -0.0693    -9.294    -3.316    -3.100  0.9154  0.3771 -0.1411
              Bcc     0.1388    18.622     6.645     6.212 -0.3813  0.6994 -0.6045
 
              Baa    -0.0572    -7.674    -2.738    -2.560  0.7598  0.5996  0.2512
     3 C(13)  Bbb    -0.0386    -5.184    -1.850    -1.729  0.6338 -0.5971 -0.4917
              Bcc     0.0958    12.857     4.588     4.289  0.1448 -0.5328  0.8337
 
              Baa    -0.5911   -22.796    -8.134    -7.604  0.8661  0.4998 -0.0072
     4 N(14)  Bbb    -0.5865   -22.621    -8.072    -7.546 -0.4470  0.7809  0.4364
              Bcc     1.1776    45.417    16.206    15.150  0.2237 -0.3747  0.8997
 
              Baa    -0.0646    -8.671    -3.094    -2.892  0.0198 -0.4130  0.9105
     5 C(13)  Bbb     0.0179     2.399     0.856     0.800  0.9444 -0.2912 -0.1526
              Bcc     0.0467     6.272     2.238     2.092  0.3282  0.8629  0.3843
 
              Baa    -0.2489    18.008     6.426     6.007 -0.0797  0.2174  0.9728
     6 O(17)  Bbb    -0.0766     5.545     1.979     1.850  0.9901  0.1304  0.0520
              Bcc     0.3255   -23.553    -8.404    -7.856 -0.1156  0.9673 -0.2256
 
              Baa    -0.2111    -8.142    -2.905    -2.716  0.9728  0.0543 -0.2254
     7 N(14)  Bbb    -0.2004    -7.728    -2.757    -2.578  0.0196  0.9494  0.3133
              Bcc     0.4115    15.870     5.663     5.294  0.2310 -0.3092  0.9225
 
              Baa    -0.0172    -2.309    -0.824    -0.770  0.9573 -0.2718  0.0980
     8 C(13)  Bbb    -0.0085    -1.137    -0.406    -0.379  0.2537  0.9531  0.1653
              Bcc     0.0257     3.445     1.229     1.149 -0.1383 -0.1334  0.9814
 
              Baa    -0.0196    -2.627    -0.937    -0.876  0.9063  0.3364 -0.2558
     9 C(13)  Bbb    -0.0188    -2.516    -0.898    -0.839 -0.3866  0.9045 -0.1802
              Bcc     0.0383     5.144     1.835     1.716  0.1707  0.2623  0.9498
 
              Baa    -0.0515    -6.914    -2.467    -2.306  0.1392 -0.2240  0.9646
    10 C(13)  Bbb     0.0157     2.103     0.750     0.701  0.4831  0.8657  0.1313
              Bcc     0.0359     4.811     1.717     1.605  0.8644 -0.4477 -0.2287
 
              Baa    -0.1625    11.760     4.196     3.923  0.7491  0.5995  0.2820
    11 O(17)  Bbb    -0.1469    10.631     3.794     3.546 -0.6552  0.7332  0.1818
              Bcc     0.3095   -22.392    -7.990    -7.469 -0.0978 -0.3210  0.9420
 
              Baa    -0.0644    -2.485    -0.887    -0.829  0.2384 -0.3441  0.9082
    12 N(14)  Bbb     0.0291     1.122     0.400     0.374  0.3261  0.9092  0.2589
              Bcc     0.0353     1.363     0.486     0.455  0.9148 -0.2344 -0.3289
 
              Baa    -0.0023    -0.315    -0.112    -0.105  0.3462 -0.2660  0.8997
    13 C(13)  Bbb    -0.0013    -0.175    -0.062    -0.058  0.6933  0.7186 -0.0544
              Bcc     0.0036     0.490     0.175     0.163 -0.6320  0.6426  0.4332
 
              Baa    -0.0127    -6.364    -2.271    -2.123  0.0989  0.9732 -0.2077
    14 F(19)  Bbb    -0.0072    -3.609    -1.288    -1.204  0.5478  0.1210  0.8278
              Bcc     0.0199     9.973     3.558     3.327  0.8307 -0.1957 -0.5212
 
              Baa    -0.0046    -2.324    -0.829    -0.775  0.6427 -0.4549  0.6164
    15 F(19)  Bbb    -0.0028    -1.388    -0.495    -0.463 -0.5415  0.2994  0.7856
              Bcc     0.0074     3.712     1.325     1.238  0.5419  0.8387  0.0539
 
              Baa    -0.0024    -0.318    -0.113    -0.106  0.0905 -0.1763  0.9802
    16 C(13)  Bbb    -0.0005    -0.068    -0.024    -0.023  0.3741  0.9182  0.1306
              Bcc     0.0029     0.386     0.138     0.129  0.9230 -0.3548 -0.1490
 
              Baa    -0.0072    -3.606    -1.287    -1.203 -0.1302  0.0863  0.9877
    17 F(19)  Bbb    -0.0062    -3.128    -1.116    -1.043  0.1422  0.9875 -0.0675
              Bcc     0.0134     6.735     2.403     2.246  0.9812 -0.1316  0.1408
 
              Baa    -0.0007     0.051     0.018     0.017  0.7294  0.3105  0.6095
    18 O(17)  Bbb    -0.0005     0.035     0.012     0.012  0.0273  0.8771 -0.4795
              Bcc     0.0012    -0.086    -0.031    -0.029  0.6835 -0.3664 -0.6313
 
              Baa    -0.0007    -0.097    -0.035    -0.032  0.1747 -0.3692  0.9128
    19 C(13)  Bbb    -0.0006    -0.080    -0.029    -0.027 -0.0232  0.9252  0.3787
              Bcc     0.0013     0.178     0.063     0.059  0.9843  0.0873 -0.1531
 
              Baa    -0.0004    -0.203    -0.072    -0.068  0.1230 -0.5254  0.8419
    20 F(19)  Bbb    -0.0003    -0.169    -0.060    -0.056 -0.0734  0.8412  0.5357
              Bcc     0.0007     0.372     0.133     0.124  0.9897  0.1277 -0.0649
 
              Baa    -0.0007    -0.330    -0.118    -0.110  0.2294  0.4989  0.8358
    21 F(19)  Bbb    -0.0006    -0.279    -0.099    -0.093 -0.1487  0.8665 -0.4764
              Bcc     0.0012     0.608     0.217     0.203  0.9619  0.0150 -0.2730
 
              Baa    -0.0011    -0.559    -0.200    -0.187  0.2079 -0.4259  0.8806
    22 F(19)  Bbb    -0.0010    -0.521    -0.186    -0.174 -0.2028  0.8619  0.4648
              Bcc     0.0022     1.080     0.386     0.360  0.9569  0.2752 -0.0928
 
              Baa    -0.0013    -0.180    -0.064    -0.060 -0.3671 -0.3843  0.8471
    23 C(13)  Bbb    -0.0003    -0.039    -0.014    -0.013  0.1937  0.8591  0.4736
              Bcc     0.0016     0.219     0.078     0.073  0.9098 -0.3380  0.2409
 
              Baa    -0.0015    -0.753    -0.269    -0.251 -0.2909 -0.4682  0.8343
    24 F(19)  Bbb    -0.0007    -0.372    -0.133    -0.124 -0.0852  0.8813  0.4649
              Bcc     0.0022     1.125     0.401     0.375  0.9529 -0.0641  0.2963
 
              Baa    -0.0024    -1.183    -0.422    -0.395 -0.5498 -0.4464  0.7060
    25 F(19)  Bbb     0.0004     0.200     0.072     0.067  0.3273  0.6625  0.6738
              Bcc     0.0020     0.982     0.351     0.328  0.7685 -0.6015  0.2182
 
              Baa    -0.0008    -0.387    -0.138    -0.129 -0.5007 -0.2752  0.8207
    26 F(19)  Bbb    -0.0004    -0.187    -0.067    -0.062  0.1506  0.9059  0.3957
              Bcc     0.0011     0.573     0.205     0.191  0.8524 -0.3217  0.4122
 
              Baa    -0.1450   -19.462    -6.945    -6.492  0.1766 -0.4332  0.8839
    27 C(13)  Bbb     0.0508     6.820     2.434     2.275 -0.6130  0.6542  0.4430
              Bcc     0.0942    12.642     4.511     4.217  0.7701  0.6200  0.1500
 
              Baa    -0.4870    35.238    12.574    11.754  0.7654 -0.5471 -0.3390
    28 O(17)  Bbb    -0.4779    34.583    12.340    11.536  0.6374  0.7171  0.2819
              Bcc     0.9649   -69.821   -24.914   -23.290  0.0888 -0.4319  0.8975
 
              Baa    -0.0037    -1.957    -0.698    -0.653  0.7600  0.6321  0.1512
    29 H(1)   Bbb    -0.0011    -0.564    -0.201    -0.188 -0.5169  0.4467  0.7302
              Bcc     0.0047     2.521     0.900     0.841  0.3941 -0.6331  0.6662
 
              Baa    -0.0036    -1.920    -0.685    -0.641  0.6583  0.4577 -0.5977
    30 H(1)   Bbb    -0.0011    -0.572    -0.204    -0.191  0.7005 -0.0818  0.7089
              Bcc     0.0047     2.493     0.889     0.831 -0.2756  0.8854  0.3744
 
              Baa    -0.0036    -1.927    -0.688    -0.643  0.4093  0.4603  0.7878
    31 H(1)   Bbb    -0.0014    -0.739    -0.264    -0.247  0.1671  0.8110 -0.5607
              Bcc     0.0050     2.666     0.951     0.889  0.8970 -0.3611 -0.2551
 
              Baa    -0.0104    -5.531    -1.973    -1.845  0.1008  0.5512  0.8283
    32 H(1)   Bbb     0.0020     1.088     0.388     0.363  0.8986 -0.4078  0.1620
              Bcc     0.0083     4.443     1.585     1.482  0.4271  0.7279 -0.5364
 
              Baa    -0.0100    -5.321    -1.899    -1.775  0.7313  0.1695 -0.6606
    33 H(1)   Bbb    -0.0002    -0.106    -0.038    -0.035 -0.1478  0.9850  0.0891
              Bcc     0.0102     5.427     1.936     1.810  0.6658  0.0325  0.7454
 
              Baa    -0.0100    -5.331    -1.902    -1.778  0.3497 -0.5466  0.7609
    34 H(1)   Bbb    -0.0056    -2.975    -1.061    -0.992  0.0782  0.8263  0.5577
              Bcc     0.0156     8.306     2.964     2.770  0.9336  0.1355 -0.3317
 
              Baa    -0.0099    -5.256    -1.876    -1.753  0.2403 -0.6207  0.7463
    35 H(1)   Bbb    -0.0016    -0.829    -0.296    -0.277  0.9412 -0.0391 -0.3356
              Bcc     0.0114     6.086     2.172     2.030  0.2375  0.7831  0.5747
 
              Baa    -0.0054    -2.855    -1.019    -0.952  0.2919 -0.1384  0.9464
    36 H(1)   Bbb    -0.0005    -0.280    -0.100    -0.093 -0.4914  0.8272  0.2725
              Bcc     0.0059     3.135     1.119     1.046  0.8206  0.5446 -0.1734
 
              Baa    -0.0039    -2.090    -0.746    -0.697  0.1224 -0.0778  0.9894
    37 H(1)   Bbb    -0.0009    -0.500    -0.179    -0.167  0.9261  0.3674 -0.0856
              Bcc     0.0049     2.590     0.924     0.864 -0.3569  0.9268  0.1170
 
              Baa    -0.0029    -1.553    -0.554    -0.518  0.9309 -0.3633 -0.0381
    38 H(1)   Bbb    -0.0014    -0.727    -0.260    -0.243 -0.0898 -0.3286  0.9402
              Bcc     0.0043     2.280     0.814     0.761  0.3541  0.8718  0.3385
 
              Baa    -0.0038    -2.021    -0.721    -0.674  0.7080  0.4173 -0.5697
    39 H(1)   Bbb    -0.0001    -0.027    -0.010    -0.009 -0.3607  0.9073  0.2163
              Bcc     0.0038     2.048     0.731     0.683  0.6071  0.0523  0.7929
 
              Baa    -0.0033    -1.779    -0.635    -0.593 -0.3913  0.8212 -0.4154
    40 H(1)   Bbb     0.0001     0.029     0.010     0.010  0.8850  0.4595  0.0748
              Bcc     0.0033     1.749     0.624     0.584 -0.2523  0.3383  0.9066
 

 ---------------------------------------------------------------------------------

 No NMR shielding tensors so no spin-rotation constants.
 Leave Link  601 at Sun Mar  3 17:40:21 2024, MaxMem=  5368709120 cpu:         5.2
 (Enter /home/k0335/k033513/app/g09/l9999.exe)
 1\1\GINC-C24U17N4\SP\UCAM-B3LYP\6-31G(d,p)\C12H12F9N3O4(1+,2)\K033513\
 03-Mar-2024\0\\#p CAM-B3LYP/6-31G(d,p) SCRF=(PCM,Solvent=Generic,Read)
  NoSymm out=wfn\\Title A1452355792_p1\\1,2\C,0,3.723631,-3.375758,-0.5
 75192\C,0,2.793541,-2.32364,0.005863\C,0,2.273395,-1.376127,-1.077612\
 N,0,1.379831,-0.360437,-0.519717\C,0,1.935089,0.8214,-0.074403\O,0,3.1
 52481,1.006332,-0.050643\N,0,1.037061,1.78364,0.338384\C,0,1.555283,3.
 102394,0.70011\C,0,1.896996,3.18298,2.181263\C,0,-0.312519,1.544467,0.
 483042\O,0,-1.097761,2.446645,0.769283\N,0,-0.737025,0.26042,0.263303\
 C,0,-2.141242,-0.066471,0.453053\F,0,-2.173726,-1.313308,1.020617\F,0,
 -2.687511,0.713664,1.432909\C,0,-3.097436,-0.051494,-0.778327\F,0,-2.6
 97187,-0.940079,-1.733784\O,0,-4.478958,-0.350916,-0.510837\C,0,-4.675
 384,-1.578536,0.138083\F,0,-5.943686,-1.975593,-0.08203\F,0,-4.508095,
 -1.410062,1.460594\F,0,-3.843208,-2.524834,-0.319803\C,0,-3.056708,1.3
 38752,-1.40264\F,0,-3.477022,2.302385,-0.557672\F,0,-1.81412,1.665907,
 -1.831297\F,0,-3.86201,1.404576,-2.495171\C,0,0.04441,-0.668691,-0.374
 825\O,0,-0.42353,-1.721444,-0.804992\H,0,4.083382,-4.041895,0.215194\H
 ,0,3.20745,-3.984894,-1.32406\H,0,4.593646,-2.910929,-1.049847\H,0,1.9
 53373,-2.820154,0.50553\H,0,3.326873,-1.755606,0.777157\H,0,3.115557,-
 0.883218,-1.577921\H,0,1.738527,-1.947014,-1.845876\H,0,2.449683,3.322
 875,0.106355\H,0,0.812703,3.870138,0.455337\H,0,2.28422,4.176168,2.428
 389\H,0,2.656441,2.44214,2.451683\H,0,1.013552,2.996215,2.800497\\Vers
 ion=ES64L-G09RevD.01\HF=-1827.379551\S2=0.774628\S2-1=0.\S2A=0.7504\RM
 SD=2.976e-09\Dipole=5.6000668,-0.1234298,-0.0004804\Quadrupole=-0.1255
 526,5.6836212,-5.5580686,-2.8873559,-1.1655806,4.013713\PG=C01 [X(C12H
 12F9N3O4)]\\@

 Writing a WFN file to "A1452355792/A1452355792_p1.wfn"


 IF AT FIRST YOU DON'T SUCCEED, TRY, TRY AGAIN.
 THEN GIVE UP;
 THERE'S NO USE BEING A DAMN FOOL ABOUT IT.

                                 -- W. C. FIELDS
 Job cpu time:       0 days  1 hours  1 minutes 50.6 seconds.
 File lengths (MBytes):  RWF=    372 Int=      0 D2E=      0 Chk=     13 Scr=      1
 Normal termination of Gaussian 09 at Sun Mar  3 17:40:21 2024.
