 Entering Gaussian System, Link 0=g09
 Initial command:
 /home/k0335/k033513/app/g09/l1.exe "/home/k0335/k033513/app/g09/scratch/Gau-3858176.inp" -scrdir="/home/k0335/k033513/app/g09/scratch/"
 Default is to use a total of  36 processors:
                               36 via shared-memory
                                1 via Linda
 Entering Link 1 = /home/k0335/k033513/app/g09/l1.exe PID=   3858177.
  
 Copyright (c) 1988,1990,1992,1993,1995,1998,2003,2009,2013,
            Gaussian, Inc.  All Rights Reserved.
  
 This is part of the Gaussian(R) 09 program.  It is based on
 the Gaussian(R) 03 system (copyright 2003, Gaussian, Inc.),
 the Gaussian(R) 98 system (copyright 1998, Gaussian, Inc.),
 the Gaussian(R) 94 system (copyright 1995, Gaussian, Inc.),
 the Gaussian 92(TM) system (copyright 1992, Gaussian, Inc.),
 the Gaussian 90(TM) system (copyright 1990, Gaussian, Inc.),
 the Gaussian 88(TM) system (copyright 1988, Gaussian, Inc.),
 the Gaussian 86(TM) system (copyright 1986, Carnegie Mellon
 University), and the Gaussian 82(TM) system (copyright 1983,
 Carnegie Mellon University). Gaussian is a federally registered
 trademark of Gaussian, Inc.
  
 This software contains proprietary and confidential information,
 including trade secrets, belonging to Gaussian, Inc.
  
 This software is provided under written license and may be
 used, copied, transmitted, or stored only in accord with that
 written license.
  
 The following legend is applicable only to US Government
 contracts under FAR:
  
                    RESTRICTED RIGHTS LEGEND
  
 Use, reproduction and disclosure by the US Government is
 subject to restrictions as set forth in subparagraphs (a)
 and (c) of the Commercial Computer Software - Restricted
 Rights clause in FAR 52.227-19.
  
 Gaussian, Inc.
 340 Quinnipiac St., Bldg. 40, Wallingford CT 06492
  
  
 ---------------------------------------------------------------
 Warning -- This program may not be used in any manner that
 competes with the business of Gaussian, Inc. or will provide
 assistance to any competitor of Gaussian, Inc.  The licensee
 of this program is prohibited from giving any competitor of
 Gaussian, Inc. access to this program.  By using this program,
 the user acknowledges that Gaussian, Inc. is engaged in the
 business of creating and licensing software in the field of
 computational chemistry and represents and warrants to the
 licensee that it is not a competitor of Gaussian, Inc. and that
 it will not use this program in any manner prohibited above.
 ---------------------------------------------------------------
  

 Cite this work as:
 Gaussian 09, Revision D.01,
 M. J. Frisch, G. W. Trucks, H. B. Schlegel, G. E. Scuseria, 
 M. A. Robb, J. R. Cheeseman, G. Scalmani, V. Barone, B. Mennucci, 
 G. A. Petersson, H. Nakatsuji, M. Caricato, X. Li, H. P. Hratchian, 
 A. F. Izmaylov, J. Bloino, G. Zheng, J. L. Sonnenberg, M. Hada, 
 M. Ehara, K. Toyota, R. Fukuda, J. Hasegawa, M. Ishida, T. Nakajima, 
 Y. Honda, O. Kitao, H. Nakai, T. Vreven, J. A. Montgomery, Jr., 
 J. E. Peralta, F. Ogliaro, M. Bearpark, J. J. Heyd, E. Brothers, 
 K. N. Kudin, V. N. Staroverov, T. Keith, R. Kobayashi, J. Normand, 
 K. Raghavachari, A. Rendell, J. C. Burant, S. S. Iyengar, J. Tomasi, 
 M. Cossi, N. Rega, J. M. Millam, M. Klene, J. E. Knox, J. B. Cross, 
 V. Bakken, C. Adamo, J. Jaramillo, R. Gomperts, R. E. Stratmann, 
 O. Yazyev, A. J. Austin, R. Cammi, C. Pomelli, J. W. Ochterski, 
 R. L. Martin, K. Morokuma, V. G. Zakrzewski, G. A. Voth, 
 P. Salvador, J. J. Dannenberg, S. Dapprich, A. D. Daniels, 
 O. Farkas, J. B. Foresman, J. V. Ortiz, J. Cioslowski, 
 and D. J. Fox, Gaussian, Inc., Wallingford CT, 2013.
 
 ******************************************
 Gaussian 09:  ES64L-G09RevD.01 24-Apr-2013
                 3-Feb-2025 
 ******************************************
 %nprocshared=24
 Will use up to   24 processors via shared memory.
 %mem=40GB
 %rwf=cytop/EHOPA1/EHOPA1_neu.rwf
 %nosave
 %chk=cytop/EHOPA1/EHOPA1_neu.chk
 ----------------------------------------------------------------------
 #p CAM-B3LYP/6-31G(d,p) SCRF=(PCM,Solvent=Generic,Read) NoSymm out=wfn
 ----------------------------------------------------------------------
 1/38=1,40=2/1;
 2/12=2,15=1,17=6,18=5,40=1/2;
 3/5=1,6=6,7=101,11=2,16=1,25=1,30=1,70=2203,72=-2,74=-40/1,2,3;
 4//1;
 5/5=2,38=5/2;
 6/7=2,8=2,9=2,10=2,28=1/1;
 99/5=1,6=100,9=1/99;
 Leave Link    1 at Mon Feb  3 21:45:00 2025, MaxMem=  5368709120 cpu:         0.9
 (Enter /home/k0335/k033513/app/g09/l101.exe)
 ----------------
 Title EHOPA1_neu
 ----------------
 Symbolic Z-matrix:
 Charge =  0 Multiplicity = 1
 C                    -6.00662   3.0286    1.89132 
 C                    -5.79561   1.54068   1.65189 
 C                    -4.3203    1.22054   1.41113 
 C                    -4.01654  -0.27842   1.28467 
 C                    -4.13006  -0.91913  -0.11966 
 C                    -5.55791  -1.03461  -0.68276 
 C                    -6.51341  -1.81404   0.20904 
 C                    -3.22616  -0.23616  -1.16807 
 O                    -1.89682  -0.03206  -0.69036 
 C                    -1.0469   -1.17142  -0.8032 
 C                    -0.40741  -1.26673  -2.18705 
 C                     0.28487   0.0228   -2.62646 
 N                     1.36023   0.42101  -1.7418 
 C                     2.61222  -0.17876  -1.77143 
 C                     3.58771   0.38884  -0.72477 
 F                     2.91238   0.67495   0.43181 
 F                     4.09264   1.58138  -1.15312 
 C                     4.73035  -0.5791   -0.40808 
 F                     4.18143  -1.80665  -0.13863 
 O                     5.61806  -0.8136   -1.51943 
 C                     6.88489  -1.1261   -0.94693 
 F                     7.72612  -0.13046  -1.30187 
 F                     7.36207  -2.26262  -1.48875 
 C                     6.71454  -1.19615   0.55995 
 F                     6.29635  -2.44278   0.92222 
 F                     7.82861  -0.96157   1.27122 
 C                     5.60205  -0.21073   0.79555 
 C                     6.05252   1.23999   0.8282 
 F                     4.96281   2.02943   1.06775 
 C                     7.1183    1.49285   1.89516 
 O                     6.65409   1.44334   3.16151 
 O                     8.30218   1.71785   1.69291 
 F                     6.49346   1.6171   -0.40106 
 F                     4.96043  -0.49665   1.96566 
 O                     2.90371  -1.03622  -2.60105 
 H                    -5.44585   3.36919   2.76756 
 H                    -5.68175   3.61444   1.02556 
 H                    -7.06664   3.23807   2.06493 
 H                    -6.40396   1.24028   0.79635 
 H                    -6.16035   0.98465   2.52295 
 H                    -3.94933   1.77624   0.54434 
 H                    -3.7538    1.59634   2.27398 
 H                    -4.62128  -0.84166   2.00496 
 H                    -2.98034  -0.42314   1.62039 
 H                    -3.75939  -1.94604   0.00446 
 H                    -5.97192  -0.04358  -0.8948 
 H                    -5.51081  -1.55204  -1.65016 
 H                    -6.71276  -1.29084   1.14791 
 H                    -7.4726   -1.95169  -0.30129 
 H                    -6.11108  -2.80483   0.4434 
 H                    -3.21341  -0.80914  -2.1023 
 H                    -3.6271    0.75131  -1.41984 
 H                    -1.58511  -2.0942   -0.5631 
 H                    -0.26323  -1.05875  -0.04634 
 H                     0.3045   -2.10021  -2.19043 
 H                    -1.17808  -1.50299  -2.92957 
 H                     0.69952  -0.11477  -3.63133 
 H                    -0.42461   0.85528  -2.6728 
 H                     1.13429   1.04244  -0.96922 
 H                     7.43083   1.64024   3.72965 
 
 NAtoms=     60 NQM=       60 NQMF=       0 NMMI=      0 NMMIF=      0
                NMic=       0 NMicF=      0.
                    Isotopes and Nuclear Properties:
 (Nuclear quadrupole moments (NQMom) in fm**2, nuclear magnetic moments (NMagM)
  in nuclear magnetons)

  Atom         1           2           3           4           5           6           7           8           9          10
 IAtWgt=          12          12          12          12          12          12          12          12          16          12
 AtmWgt=  12.0000000  12.0000000  12.0000000  12.0000000  12.0000000  12.0000000  12.0000000  12.0000000  15.9949146  12.0000000
 NucSpn=           0           0           0           0           0           0           0           0           0           0
 AtZEff=   0.0000000   0.0000000   0.0000000   0.0000000   0.0000000   0.0000000   0.0000000   0.0000000   0.0000000   0.0000000
 NQMom=    0.0000000   0.0000000   0.0000000   0.0000000   0.0000000   0.0000000   0.0000000   0.0000000   0.0000000   0.0000000
 NMagM=    0.0000000   0.0000000   0.0000000   0.0000000   0.0000000   0.0000000   0.0000000   0.0000000   0.0000000   0.0000000
 AtZNuc=   6.0000000   6.0000000   6.0000000   6.0000000   6.0000000   6.0000000   6.0000000   6.0000000   8.0000000   6.0000000

  Atom        11          12          13          14          15          16          17          18          19          20
 IAtWgt=          12          12          14          12          12          19          19          12          19          16
 AtmWgt=  12.0000000  12.0000000  14.0030740  12.0000000  12.0000000  18.9984033  18.9984033  12.0000000  18.9984033  15.9949146
 NucSpn=           0           0           2           0           0           1           1           0           1           0
 AtZEff=   0.0000000   0.0000000   0.0000000   0.0000000   0.0000000   0.0000000   0.0000000   0.0000000   0.0000000   0.0000000
 NQMom=    0.0000000   0.0000000   2.0440000   0.0000000   0.0000000   0.0000000   0.0000000   0.0000000   0.0000000   0.0000000
 NMagM=    0.0000000   0.0000000   0.4037610   0.0000000   0.0000000   2.6288670   2.6288670   0.0000000   2.6288670   0.0000000
 AtZNuc=   6.0000000   6.0000000   7.0000000   6.0000000   6.0000000   9.0000000   9.0000000   6.0000000   9.0000000   8.0000000

  Atom        21          22          23          24          25          26          27          28          29          30
 IAtWgt=          12          19          19          12          19          19          12          12          19          12
 AtmWgt=  12.0000000  18.9984033  18.9984033  12.0000000  18.9984033  18.9984033  12.0000000  12.0000000  18.9984033  12.0000000
 NucSpn=           0           1           1           0           1           1           0           0           1           0
 AtZEff=   0.0000000   0.0000000   0.0000000   0.0000000   0.0000000   0.0000000   0.0000000   0.0000000   0.0000000   0.0000000
 NQMom=    0.0000000   0.0000000   0.0000000   0.0000000   0.0000000   0.0000000   0.0000000   0.0000000   0.0000000   0.0000000
 NMagM=    0.0000000   2.6288670   2.6288670   0.0000000   2.6288670   2.6288670   0.0000000   0.0000000   2.6288670   0.0000000
 AtZNuc=   6.0000000   9.0000000   9.0000000   6.0000000   9.0000000   9.0000000   6.0000000   6.0000000   9.0000000   6.0000000

  Atom        31          32          33          34          35          36          37          38          39          40
 IAtWgt=          16          16          19          19          16           1           1           1           1           1
 AtmWgt=  15.9949146  15.9949146  18.9984033  18.9984033  15.9949146   1.0078250   1.0078250   1.0078250   1.0078250   1.0078250
 NucSpn=           0           0           1           1           0           1           1           1           1           1
 AtZEff=   0.0000000   0.0000000   0.0000000   0.0000000   0.0000000   0.0000000   0.0000000   0.0000000   0.0000000   0.0000000
 NQMom=    0.0000000   0.0000000   0.0000000   0.0000000   0.0000000   0.0000000   0.0000000   0.0000000   0.0000000   0.0000000
 NMagM=    0.0000000   0.0000000   2.6288670   2.6288670   0.0000000   2.7928460   2.7928460   2.7928460   2.7928460   2.7928460
 AtZNuc=   8.0000000   8.0000000   9.0000000   9.0000000   8.0000000   1.0000000   1.0000000   1.0000000   1.0000000   1.0000000

  Atom        41          42          43          44          45          46          47          48          49          50
 IAtWgt=           1           1           1           1           1           1           1           1           1           1
 AtmWgt=   1.0078250   1.0078250   1.0078250   1.0078250   1.0078250   1.0078250   1.0078250   1.0078250   1.0078250   1.0078250
 NucSpn=           1           1           1           1           1           1           1           1           1           1
 AtZEff=   0.0000000   0.0000000   0.0000000   0.0000000   0.0000000   0.0000000   0.0000000   0.0000000   0.0000000   0.0000000
 NQMom=    0.0000000   0.0000000   0.0000000   0.0000000   0.0000000   0.0000000   0.0000000   0.0000000   0.0000000   0.0000000
 NMagM=    2.7928460   2.7928460   2.7928460   2.7928460   2.7928460   2.7928460   2.7928460   2.7928460   2.7928460   2.7928460
 AtZNuc=   1.0000000   1.0000000   1.0000000   1.0000000   1.0000000   1.0000000   1.0000000   1.0000000   1.0000000   1.0000000

  Atom        51          52          53          54          55          56          57          58          59          60
 IAtWgt=           1           1           1           1           1           1           1           1           1           1
 AtmWgt=   1.0078250   1.0078250   1.0078250   1.0078250   1.0078250   1.0078250   1.0078250   1.0078250   1.0078250   1.0078250
 NucSpn=           1           1           1           1           1           1           1           1           1           1
 AtZEff=   0.0000000   0.0000000   0.0000000   0.0000000   0.0000000   0.0000000   0.0000000   0.0000000   0.0000000   0.0000000
 NQMom=    0.0000000   0.0000000   0.0000000   0.0000000   0.0000000   0.0000000   0.0000000   0.0000000   0.0000000   0.0000000
 NMagM=    2.7928460   2.7928460   2.7928460   2.7928460   2.7928460   2.7928460   2.7928460   2.7928460   2.7928460   2.7928460
 AtZNuc=   1.0000000   1.0000000   1.0000000   1.0000000   1.0000000   1.0000000   1.0000000   1.0000000   1.0000000   1.0000000
 Leave Link  101 at Mon Feb  3 21:45:01 2025, MaxMem=  5368709120 cpu:         0.9
 (Enter /home/k0335/k033513/app/g09/l202.exe)
 Symmetry turned off by external request.
 Stoichiometry    C19H25F10NO5
 Framework group  C1[X(C19H25F10NO5)]
 Deg. of freedom   174
 Full point group                 C1      NOp   1
                          Input orientation:                          
 ---------------------------------------------------------------------
 Center     Atomic      Atomic             Coordinates (Angstroms)
 Number     Number       Type             X           Y           Z
 ---------------------------------------------------------------------
      1          6           0       -6.006625    3.028604    1.891316
      2          6           0       -5.795606    1.540682    1.651894
      3          6           0       -4.320300    1.220536    1.411125
      4          6           0       -4.016535   -0.278421    1.284665
      5          6           0       -4.130064   -0.919128   -0.119660
      6          6           0       -5.557908   -1.034606   -0.682755
      7          6           0       -6.513411   -1.814043    0.209039
      8          6           0       -3.226160   -0.236160   -1.168065
      9          8           0       -1.896817   -0.032064   -0.690364
     10          6           0       -1.046902   -1.171420   -0.803195
     11          6           0       -0.407408   -1.266732   -2.187046
     12          6           0        0.284871    0.022795   -2.626464
     13          7           0        1.360228    0.421008   -1.741803
     14          6           0        2.612217   -0.178761   -1.771425
     15          6           0        3.587709    0.388835   -0.724769
     16          9           0        2.912378    0.674949    0.431814
     17          9           0        4.092636    1.581382   -1.153121
     18          6           0        4.730348   -0.579104   -0.408081
     19          9           0        4.181426   -1.806645   -0.138630
     20          8           0        5.618055   -0.813603   -1.519425
     21          6           0        6.884886   -1.126104   -0.946934
     22          9           0        7.726121   -0.130461   -1.301870
     23          9           0        7.362073   -2.262625   -1.488754
     24          6           0        6.714536   -1.196150    0.559952
     25          9           0        6.296353   -2.442776    0.922217
     26          9           0        7.828608   -0.961572    1.271218
     27          6           0        5.602046   -0.210727    0.795552
     28          6           0        6.052522    1.239992    0.828200
     29          9           0        4.962809    2.029433    1.067746
     30          6           0        7.118296    1.492853    1.895158
     31          8           0        6.654086    1.443341    3.161508
     32          8           0        8.302184    1.717852    1.692913
     33          9           0        6.493457    1.617103   -0.401060
     34          9           0        4.960429   -0.496650    1.965658
     35          8           0        2.903713   -1.036225   -2.601047
     36          1           0       -5.445846    3.369192    2.767556
     37          1           0       -5.681754    3.614435    1.025559
     38          1           0       -7.066637    3.238072    2.064930
     39          1           0       -6.403960    1.240276    0.796345
     40          1           0       -6.160352    0.984651    2.522951
     41          1           0       -3.949333    1.776237    0.544335
     42          1           0       -3.753802    1.596337    2.273976
     43          1           0       -4.621277   -0.841657    2.004961
     44          1           0       -2.980342   -0.423136    1.620390
     45          1           0       -3.759392   -1.946037    0.004456
     46          1           0       -5.971916   -0.043579   -0.894795
     47          1           0       -5.510808   -1.552036   -1.650162
     48          1           0       -6.712756   -1.290840    1.147912
     49          1           0       -7.472603   -1.951688   -0.301291
     50          1           0       -6.111079   -2.804825    0.443398
     51          1           0       -3.213406   -0.809137   -2.102297
     52          1           0       -3.627099    0.751306   -1.419837
     53          1           0       -1.585105   -2.094197   -0.563095
     54          1           0       -0.263230   -1.058754   -0.046339
     55          1           0        0.304499   -2.100208   -2.190425
     56          1           0       -1.178082   -1.502988   -2.929568
     57          1           0        0.699517   -0.114766   -3.631326
     58          1           0       -0.424611    0.855280   -2.672803
     59          1           0        1.134291    1.042438   -0.969222
     60          1           0        7.430831    1.640241    3.729650
 ---------------------------------------------------------------------
 Rotational constants (GHZ):      0.2342649      0.0411179      0.0384383
 Leave Link  202 at Mon Feb  3 21:45:01 2025, MaxMem=  5368709120 cpu:         0.0
 (Enter /home/k0335/k033513/app/g09/l301.exe)
 Standard basis: 6-31G(d,p) (6D, 7F)
 Ernie: Thresh=  0.10000D-02 Tol=  0.10000D-05 Strict=F.
   650 basis functions,  1155 primitive gaussians,   650 cartesian basis functions
   138 alpha electrons      138 beta electrons
       nuclear repulsion energy      4429.9602818823 Hartrees.
 IExCor=20419 DFT=T Ex+Corr=CAM-B3LYP ExCW=0 ScaHFX=  1.000000
 ScaDFX=  1.000000  1.000000  1.000000  0.810000 ScalE2=  1.000000  1.000000
 IRadAn=      0 IRanWt=     -1 IRanGd=            0 ICorTp=0 IEmpDi=  4
  HFx wShort=  0.000000 wLong=  0.330000 cFull=  0.190000 cShort=  0.000000 cLong=  0.460000
  DFx wShort=  0.000000 wLong=  0.330000 cFull=  0.190000 cShort=  0.000000 cLong=  0.460000
 NAtoms=   60 NActive=   60 NUniq=   60 SFac= 1.00D+00 NAtFMM=   60 NAOKFM=T Big=T
 Integral buffers will be    131072 words long.
 Raffenetti 2 integral format.
 Two-electron integral symmetry is turned off.
 Using the following non-standard input for PCM:
 eps=2.05
 --- end of non-standard input.
 ------------------------------------------------------------------------------
 Polarizable Continuum Model (PCM)
 =================================
 Model                : PCM (using non-symmetric T matrix).
 Atomic radii         : UFF (Universal Force Field).
 Polarization charges : Total charges.
 Charge compensation  : None.
 Solution method      : On-the-fly selection.
 Cavity type          : Scaled VdW (van der Waals Surface) (Alpha=1.100).
 Cavity algorithm     : GePol (No added spheres)
                        Default sphere list used, NSphG=   60.
                        Lebedev-Laikov grids with approx.  5.0 points / Ang**2.
                        Smoothing algorithm: Karplus/York (Gamma=1.0000).
                        Polarization charges: spherical gaussians, with
                                              point-specific exponents (IZeta= 3).
                        Self-potential: point-specific (ISelfS= 7).
                        Self-field    : sphere-specific E.n sum rule (ISelfD= 2).
 Solvent              : Generic,
                        Eps                           =   2.050000
                        Eps(infinity)                 =   0.000000
                        RSolv                         =   0.000000 Ang.
                        Molar volume                  =   0.000000 cm**3/mol
                        Thermal expansion coefficient =   0.000000 K**-1
                        Absolute temperature          = 298.150000 K
                        Numeral density               =   0.000000 Ang**-3
                        Hydrogen bond acidity         =   0.000000
                        Hydrogen bond basicity        =   0.000000
                        Surface tension at interface  =   0.000000 (cal/mol)*Ang**-2
                        Carbon aromaticity            =   0.000000
                        Electronegative halogenicity  =   0.000000
 ------------------------------------------------------------------------------
 GePol: Number of generator spheres                  =      60
 GePol: Total number of spheres                      =      60
 GePol: Number of exposed spheres                    =      58 ( 96.67%)
 GePol: Number of points                             =    4186
 GePol: Average weight of points                     =       0.13
 GePol: Minimum weight of points                     =   0.76D-11
 GePol: Maximum weight of points                     =    0.20577
 GePol: Number of points with low weight             =     260
 GePol: Fraction of low-weight points (<1% of avg)   =       6.21%
 GePol: Cavity surface area                          =    534.434 Ang**2
 GePol: Cavity volume                                =    607.141 Ang**3
 Leave Link  301 at Mon Feb  3 21:45:01 2025, MaxMem=  5368709120 cpu:         0.7
 (Enter /home/k0335/k033513/app/g09/l302.exe)
 NPDir=0 NMtPBC=     1 NCelOv=     1 NCel=       1 NClECP=     1 NCelD=      1
         NCelK=      1 NCelE2=     1 NClLst=     1 CellRange=     0.0.
 One-electron integrals computed using PRISM.
 NBasis=   650 RedAO= T EigKep=  8.63D-04  NBF=   650
 NBsUse=   650 1.00D-06 EigRej= -1.00D+00 NBFU=   650
 Precomputing XC quadrature grid using
 IXCGrd= 4 IRadAn=           0 IRanWt=          -1 IRanGd=           0 AccXCQ= 0.00D+00.
 Generated NRdTot=       0 NPtTot=           0 NUsed=           0 NTot=          32
 NSgBfM=   605   605   606   608   610 MxSgAt=    60 MxSgA2=    60.
 Leave Link  302 at Mon Feb  3 21:45:01 2025, MaxMem=  5368709120 cpu:        14.5
 (Enter /home/k0335/k033513/app/g09/l303.exe)
 DipDrv:  MaxL=1.
 Leave Link  303 at Mon Feb  3 21:45:02 2025, MaxMem=  5368709120 cpu:         0.9
 (Enter /home/k0335/k033513/app/g09/l401.exe)
 ExpMin= 1.61D-01 ExpMax= 7.00D+03 ExpMxC= 1.05D+03 IAcc=1 IRadAn=         1 AccDes= 0.00D+00
 Harris functional with IExCor=20419 and IRadAn=       1 diagonalized for initial guess.
 HarFok:  IExCor=20419 AccDes= 0.00D+00 IRadAn=         1 IDoV= 1 UseB2=F ITyADJ=14
 ICtDFT=  3500011 ScaDFX=  1.000000  1.000000  1.000000  1.000000
 FoFCou: FMM=F IPFlag=           0 FMFlag=      100000 FMFlg1=        2001
         NFxFlg=           0 DoJE=T BraDBF=F KetDBF=T FulRan=T
         wScrn=  0.000000 ICntrl=     500 IOpCl=  0 I1Cent=   200000004 NGrid=           0
         NMat0=    1 NMatS0=      1 NMatT0=    0 NMatD0=    1 NMtDS0=    0 NMtDT0=    0
 Symmetry not used in FoFCou.
 Harris En= -2096.16236045514    
 JPrj=0 DoOrth=F DoCkMO=F.
 Leave Link  401 at Mon Feb  3 21:45:02 2025, MaxMem=  5368709120 cpu:        16.2
 (Enter /home/k0335/k033513/app/g09/l502.exe)
 Closed shell SCF:
 Using DIIS extrapolation, IDIIS=  1040.
 Two-electron integral symmetry not used.
 IVT=     1305670 IEndB=     1305670 NGot=  5368709120 MDV=  5367843241
 LenX=  5367843241 LenY=  5367420091
 Requested convergence on RMS density matrix=1.00D-08 within 128 cycles.
 Requested convergence on MAX density matrix=1.00D-06.
 Requested convergence on             energy=1.00D-06.
 No special actions if energy rises.
 Fock matrices will be formed incrementally for  20 cycles.

 Cycle   1  Pass 1  IDiag  1:
 FoFJK:  IHMeth= 1 ICntrl=       0 DoSepK=T KAlg= 0 I1Cent=   0 FoldK=F
 IRaf=         1 NMat=   1 IRICut=       1 DoRegI=T DoRafI=F ISym2E= 0.
 FoFCou: FMM=T IPFlag=           0 FMFlag=      100000 FMFlg1=        2001
         NFxFlg=           0 DoJE=T BraDBF=F KetDBF=F FulRan=T
         wScrn=  0.000000 ICntrl=     500 IOpCl=  0 I1Cent=           0 NGrid=           0
         NMat0=    1 NMatS0=      1 NMatT0=    0 NMatD0=    1 NMtDS0=    0 NMtDT0=    0
 Symmetry not used in FoFCou.
 FMM levels:  10  Number of levels for PrismC:   9
 Inv3:  Mode=1 IEnd=    52567788.
 Iteration    1 A*A^-1 deviation from unit magnitude is 9.10D-15 for    300.
 Iteration    1 A*A^-1 deviation from orthogonality  is 4.80D-15 for   4000    679.
 Iteration    1 A^-1*A deviation from unit magnitude is 9.33D-15 for   1552.
 Iteration    1 A^-1*A deviation from orthogonality  is 5.60D-15 for   3728   3579.
 E= -2166.92832400090    
 DIIS: error= 5.14D-02 at cycle   1 NSaved=   1.
 NSaved= 1 IEnMin= 1 EnMin= -2166.92832400090     IErMin= 1 ErrMin= 5.14D-02
 ErrMax= 5.14D-02  0.00D+00 EMaxC= 1.00D-01 BMatC= 1.76D+00 BMatP= 1.76D+00
 IDIUse=3 WtCom= 4.86D-01 WtEn= 5.14D-01
 Coeff-Com:  0.100D+01
 Coeff-En:   0.100D+01
 Coeff:      0.100D+01
 Gap=     0.484 Goal=   None    Shift=    0.000
 GapD=    0.484 DampG=2.000 DampE=0.500 DampFc=1.0000 IDamp=-1.
 RMSDP=2.39D-03 MaxDP=1.05D-01              OVMax= 1.33D-01

 Cycle   2  Pass 1  IDiag  1:
 RMSU=  2.39D-03    CP:  9.95D-01
 E= -2167.16723807482     Delta-E=       -0.238914073920 Rises=F Damp=F
 DIIS: error= 1.94D-02 at cycle   2 NSaved=   2.
 NSaved= 2 IEnMin= 2 EnMin= -2167.16723807482     IErMin= 2 ErrMin= 1.94D-02
 ErrMax= 1.94D-02  0.00D+00 EMaxC= 1.00D-01 BMatC= 6.63D-01 BMatP= 1.76D+00
 IDIUse=3 WtCom= 8.06D-01 WtEn= 1.94D-01
 Coeff-Com:  0.356D+00 0.644D+00
 Coeff-En:   0.357D+00 0.643D+00
 Coeff:      0.356D+00 0.644D+00
 Gap=     0.383 Goal=   None    Shift=    0.000
 RMSDP=1.18D-03 MaxDP=7.16D-02 DE=-2.39D-01 OVMax= 9.34D-02

 Cycle   3  Pass 1  IDiag  1:
 RMSU=  7.25D-04    CP:  1.00D+00  6.11D-01
 E= -2167.49885178233     Delta-E=       -0.331613707513 Rises=F Damp=F
 DIIS: error= 7.25D-03 at cycle   3 NSaved=   3.
 NSaved= 3 IEnMin= 3 EnMin= -2167.49885178233     IErMin= 3 ErrMin= 7.25D-03
 ErrMax= 7.25D-03  0.00D+00 EMaxC= 1.00D-01 BMatC= 1.25D-01 BMatP= 6.63D-01
 IDIUse=3 WtCom= 9.28D-01 WtEn= 7.25D-02
 Coeff-Com:  0.673D-01 0.316D+00 0.616D+00
 Coeff-En:   0.000D+00 0.124D+00 0.876D+00
 Coeff:      0.624D-01 0.303D+00 0.635D+00
 Gap=     0.337 Goal=   None    Shift=    0.000
 RMSDP=5.28D-04 MaxDP=4.56D-02 DE=-3.32D-01 OVMax= 6.91D-02

 Cycle   4  Pass 1  IDiag  1:
 RMSU=  2.81D-04    CP:  9.97D-01  7.09D-01  4.82D-01
 E= -2167.57344507824     Delta-E=       -0.074593295904 Rises=F Damp=F
 DIIS: error= 2.66D-03 at cycle   4 NSaved=   4.
 NSaved= 4 IEnMin= 4 EnMin= -2167.57344507824     IErMin= 4 ErrMin= 2.66D-03
 ErrMax= 2.66D-03  0.00D+00 EMaxC= 1.00D-01 BMatC= 1.24D-02 BMatP= 1.25D-01
 IDIUse=3 WtCom= 9.73D-01 WtEn= 2.66D-02
 Coeff-Com:  0.679D-02 0.102D+00 0.328D+00 0.564D+00
 Coeff-En:   0.000D+00 0.000D+00 0.322D-01 0.968D+00
 Coeff:      0.661D-02 0.992D-01 0.320D+00 0.574D+00
 Gap=     0.317 Goal=   None    Shift=    0.000
 RMSDP=1.59D-04 MaxDP=1.63D-02 DE=-7.46D-02 OVMax= 2.44D-02

 Cycle   5  Pass 1  IDiag  1:
 RMSU=  7.51D-05    CP:  9.97D-01  7.08D-01  6.12D-01  6.30D-01
 E= -2167.58203863857     Delta-E=       -0.008593560333 Rises=F Damp=F
 DIIS: error= 8.25D-04 at cycle   5 NSaved=   5.
 NSaved= 5 IEnMin= 5 EnMin= -2167.58203863857     IErMin= 5 ErrMin= 8.25D-04
 ErrMax= 8.25D-04  0.00D+00 EMaxC= 1.00D-01 BMatC= 7.36D-04 BMatP= 1.24D-02
 IDIUse=3 WtCom= 9.92D-01 WtEn= 8.25D-03
 Coeff-Com:  0.583D-03 0.403D-01 0.150D+00 0.319D+00 0.489D+00
 Coeff-En:   0.000D+00 0.000D+00 0.000D+00 0.000D+00 0.100D+01
 Coeff:      0.578D-03 0.399D-01 0.149D+00 0.317D+00 0.494D+00
 Gap=     0.314 Goal=   None    Shift=    0.000
 RMSDP=3.58D-05 MaxDP=4.00D-03 DE=-8.59D-03 OVMax= 6.82D-03

 Cycle   6  Pass 1  IDiag  1:
 RMSU=  2.05D-05    CP:  9.97D-01  7.09D-01  6.12D-01  6.52D-01  6.23D-01
 E= -2167.58257253676     Delta-E=       -0.000533898193 Rises=F Damp=F
 DIIS: error= 1.22D-04 at cycle   6 NSaved=   6.
 NSaved= 6 IEnMin= 6 EnMin= -2167.58257253676     IErMin= 6 ErrMin= 1.22D-04
 ErrMax= 1.22D-04  0.00D+00 EMaxC= 1.00D-01 BMatC= 2.95D-05 BMatP= 7.36D-04
 IDIUse=3 WtCom= 9.99D-01 WtEn= 1.22D-03
 Coeff-Com: -0.559D-03 0.385D-02 0.209D-01 0.545D-01 0.192D+00 0.730D+00
 Coeff-En:   0.000D+00 0.000D+00 0.000D+00 0.000D+00 0.000D+00 0.100D+01
 Coeff:     -0.559D-03 0.385D-02 0.208D-01 0.544D-01 0.191D+00 0.730D+00
 Gap=     0.315 Goal=   None    Shift=    0.000
 RMSDP=1.07D-05 MaxDP=8.25D-04 DE=-5.34D-04 OVMax= 1.17D-03

 Cycle   7  Pass 1  IDiag  1:
 RMSU=  7.28D-06    CP:  9.97D-01  7.09D-01  6.15D-01  6.67D-01  7.01D-01
                    CP:  9.07D-01
 E= -2167.58259442904     Delta-E=       -0.000021892282 Rises=F Damp=F
 DIIS: error= 4.21D-05 at cycle   7 NSaved=   7.
 NSaved= 7 IEnMin= 7 EnMin= -2167.58259442904     IErMin= 7 ErrMin= 4.21D-05
 ErrMax= 4.21D-05  0.00D+00 EMaxC= 1.00D-01 BMatC= 4.59D-06 BMatP= 2.95D-05
 IDIUse=1 WtCom= 1.00D+00 WtEn= 0.00D+00
 Coeff-Com: -0.237D-03-0.380D-02-0.109D-01-0.188D-01 0.275D-01 0.334D+00
 Coeff-Com:  0.672D+00
 Coeff:     -0.237D-03-0.380D-02-0.109D-01-0.188D-01 0.275D-01 0.334D+00
 Coeff:      0.672D+00
 Gap=     0.315 Goal=   None    Shift=    0.000
 RMSDP=3.43D-06 MaxDP=3.21D-04 DE=-2.19D-05 OVMax= 5.05D-04

 Cycle   8  Pass 1  IDiag  1:
 RMSU=  2.13D-06    CP:  9.97D-01  7.10D-01  6.16D-01  6.66D-01  7.18D-01
                    CP:  1.00D+00  8.29D-01
 E= -2167.58259836506     Delta-E=       -0.000003936015 Rises=F Damp=F
 DIIS: error= 1.14D-05 at cycle   8 NSaved=   8.
 NSaved= 8 IEnMin= 8 EnMin= -2167.58259836506     IErMin= 8 ErrMin= 1.14D-05
 ErrMax= 1.14D-05  0.00D+00 EMaxC= 1.00D-01 BMatC= 2.81D-07 BMatP= 4.59D-06
 IDIUse=1 WtCom= 1.00D+00 WtEn= 0.00D+00
 Coeff-Com: -0.516D-04-0.175D-02-0.556D-02-0.114D-01-0.189D-03 0.771D-01
 Coeff-Com:  0.262D+00 0.680D+00
 Coeff:     -0.516D-04-0.175D-02-0.556D-02-0.114D-01-0.189D-03 0.771D-01
 Coeff:      0.262D+00 0.680D+00
 Gap=     0.315 Goal=   None    Shift=    0.000
 RMSDP=1.01D-06 MaxDP=8.09D-05 DE=-3.94D-06 OVMax= 1.40D-04

 Cycle   9  Pass 1  IDiag  1:
 RMSU=  7.55D-07    CP:  9.97D-01  7.10D-01  6.16D-01  6.66D-01  7.23D-01
                    CP:  1.01D+00  8.83D-01  1.00D+00
 E= -2167.58259861198     Delta-E=       -0.000000246923 Rises=F Damp=F
 DIIS: error= 3.44D-06 at cycle   9 NSaved=   9.
 NSaved= 9 IEnMin= 9 EnMin= -2167.58259861198     IErMin= 9 ErrMin= 3.44D-06
 ErrMax= 3.44D-06  0.00D+00 EMaxC= 1.00D-01 BMatC= 4.13D-08 BMatP= 2.81D-07
 IDIUse=1 WtCom= 1.00D+00 WtEn= 0.00D+00
 Coeff-Com:  0.102D-04-0.149D-03-0.589D-03-0.200D-02-0.356D-02-0.250D-01
 Coeff-Com:  0.213D-02 0.264D+00 0.765D+00
 Coeff:      0.102D-04-0.149D-03-0.589D-03-0.200D-02-0.356D-02-0.250D-01
 Coeff:      0.213D-02 0.264D+00 0.765D+00
 Gap=     0.315 Goal=   None    Shift=    0.000
 RMSDP=5.22D-07 MaxDP=4.84D-05 DE=-2.47D-07 OVMax= 8.32D-05

 Cycle  10  Pass 1  IDiag  1:
 RMSU=  2.82D-07    CP:  9.97D-01  7.10D-01  6.16D-01  6.66D-01  7.26D-01
                    CP:  1.02D+00  9.10D-01  1.12D+00  9.72D-01
 E= -2167.58259865914     Delta-E=       -0.000000047161 Rises=F Damp=F
 DIIS: error= 1.98D-06 at cycle  10 NSaved=  10.
 NSaved=10 IEnMin=10 EnMin= -2167.58259865914     IErMin=10 ErrMin= 1.98D-06
 ErrMax= 1.98D-06  0.00D+00 EMaxC= 1.00D-01 BMatC= 4.86D-09 BMatP= 4.13D-08
 IDIUse=1 WtCom= 1.00D+00 WtEn= 0.00D+00
 Coeff-Com:  0.110D-04 0.161D-03 0.459D-03 0.573D-03-0.938D-03-0.200D-01
 Coeff-Com: -0.307D-01 0.905D-02 0.283D+00 0.759D+00
 Coeff:      0.110D-04 0.161D-03 0.459D-03 0.573D-03-0.938D-03-0.200D-01
 Coeff:     -0.307D-01 0.905D-02 0.283D+00 0.759D+00
 Gap=     0.315 Goal=   None    Shift=    0.000
 RMSDP=1.83D-07 MaxDP=1.81D-05 DE=-4.72D-08 OVMax= 3.29D-05

 Cycle  11  Pass 1  IDiag  1:
 RMSU=  1.02D-07    CP:  9.97D-01  7.10D-01  6.16D-01  6.66D-01  7.27D-01
                    CP:  1.02D+00  9.20D-01  1.15D+00  1.09D+00  9.88D-01
 E= -2167.58259866409     Delta-E=       -0.000000004952 Rises=F Damp=F
 DIIS: error= 8.54D-07 at cycle  11 NSaved=  11.
 NSaved=11 IEnMin=11 EnMin= -2167.58259866409     IErMin=11 ErrMin= 8.54D-07
 ErrMax= 8.54D-07  0.00D+00 EMaxC= 1.00D-01 BMatC= 1.35D-09 BMatP= 4.86D-09
 IDIUse=1 WtCom= 1.00D+00 WtEn= 0.00D+00
 Coeff-Com:  0.503D-05 0.110D-03 0.335D-03 0.571D-03 0.125D-03-0.783D-02
 Coeff-Com: -0.165D-01-0.285D-01 0.610D-01 0.424D+00 0.566D+00
 Coeff:      0.503D-05 0.110D-03 0.335D-03 0.571D-03 0.125D-03-0.783D-02
 Coeff:     -0.165D-01-0.285D-01 0.610D-01 0.424D+00 0.566D+00
 Gap=     0.315 Goal=   None    Shift=    0.000
 RMSDP=6.50D-08 MaxDP=6.98D-06 DE=-4.95D-09 OVMax= 1.36D-05

 Cycle  12  Pass 1  IDiag  1:
 RMSU=  4.02D-08    CP:  9.97D-01  7.10D-01  6.16D-01  6.66D-01  7.27D-01
                    CP:  1.02D+00  9.21D-01  1.16D+00  1.12D+00  1.08D+00
                    CP:  7.93D-01
 E= -2167.58259866488     Delta-E=       -0.000000000782 Rises=F Damp=F
 DIIS: error= 2.32D-07 at cycle  12 NSaved=  12.
 NSaved=12 IEnMin=12 EnMin= -2167.58259866488     IErMin=12 ErrMin= 2.32D-07
 ErrMax= 2.32D-07  0.00D+00 EMaxC= 1.00D-01 BMatC= 9.28D-11 BMatP= 1.35D-09
 IDIUse=1 WtCom= 1.00D+00 WtEn= 0.00D+00
 Coeff-Com:  0.359D-06 0.214D-04 0.696D-04 0.142D-03 0.282D-03-0.207D-03
 Coeff-Com: -0.183D-02-0.123D-01-0.157D-01 0.541D-01 0.214D+00 0.762D+00
 Coeff:      0.359D-06 0.214D-04 0.696D-04 0.142D-03 0.282D-03-0.207D-03
 Coeff:     -0.183D-02-0.123D-01-0.157D-01 0.541D-01 0.214D+00 0.762D+00
 Gap=     0.315 Goal=   None    Shift=    0.000
 RMSDP=2.13D-08 MaxDP=1.64D-06 DE=-7.82D-10 OVMax= 4.20D-06

 Cycle  13  Pass 1  IDiag  1:
 RMSU=  1.24D-08    CP:  9.97D-01  7.10D-01  6.16D-01  6.66D-01  7.27D-01
                    CP:  1.02D+00  9.22D-01  1.16D+00  1.13D+00  1.12D+00
                    CP:  8.94D-01  9.13D-01
 E= -2167.58259866505     Delta-E=       -0.000000000170 Rises=F Damp=F
 DIIS: error= 8.35D-08 at cycle  13 NSaved=  13.
 NSaved=13 IEnMin=13 EnMin= -2167.58259866505     IErMin=13 ErrMin= 8.35D-08
 ErrMax= 8.35D-08  0.00D+00 EMaxC= 1.00D-01 BMatC= 1.85D-11 BMatP= 9.28D-11
 IDIUse=1 WtCom= 1.00D+00 WtEn= 0.00D+00
 Coeff-Com: -0.518D-06-0.390D-05-0.965D-05-0.742D-05 0.135D-03 0.891D-03
 Coeff-Com:  0.130D-02-0.242D-02-0.161D-01-0.318D-01 0.258D-01 0.377D+00
 Coeff-Com:  0.645D+00
 Coeff:     -0.518D-06-0.390D-05-0.965D-05-0.742D-05 0.135D-03 0.891D-03
 Coeff:      0.130D-02-0.242D-02-0.161D-01-0.318D-01 0.258D-01 0.377D+00
 Coeff:      0.645D+00
 Gap=     0.315 Goal=   None    Shift=    0.000
 RMSDP=8.21D-09 MaxDP=7.60D-07 DE=-1.70D-10 OVMax= 1.15D-06

 Error on total polarization charges =  0.00493
 SCF Done:  E(RCAM-B3LYP) =  -2167.58259867     A.U. after   13 cycles
            NFock= 13  Conv=0.82D-08     -V/T= 2.0078
 KE= 2.150890413253D+03 PE=-1.396168297242D+04 EE= 5.213249678622D+03
 Leave Link  502 at Mon Feb  3 21:45:59 2025, MaxMem=  5368709120 cpu:      1176.7
 (Enter /home/k0335/k033513/app/g09/l601.exe)
 Copying SCF densities to generalized density rwf, IOpCl= 0 IROHF=0.

 **********************************************************************

            Population analysis using the SCF density.

 **********************************************************************

 Alpha  occ. eigenvalues --  -24.83901 -24.82393 -24.82376 -24.82338 -24.82312
 Alpha  occ. eigenvalues --  -24.82288 -24.82041 -24.81674 -24.81551 -24.81160
 Alpha  occ. eigenvalues --  -19.31127 -19.30247 -19.25187 -19.22131 -19.21880
 Alpha  occ. eigenvalues --  -14.45124 -10.52184 -10.49226 -10.48654 -10.47674
 Alpha  occ. eigenvalues --  -10.46634 -10.44318 -10.42488 -10.39843 -10.30555
 Alpha  occ. eigenvalues --  -10.30154 -10.29988 -10.26005 -10.25752 -10.25280
 Alpha  occ. eigenvalues --  -10.24588 -10.24472 -10.24459 -10.24441 -10.24069
 Alpha  occ. eigenvalues --   -1.40229  -1.38441  -1.37768  -1.37072  -1.35083
 Alpha  occ. eigenvalues --   -1.33355  -1.32273  -1.31458  -1.30854  -1.30754
 Alpha  occ. eigenvalues --   -1.22122  -1.19317  -1.13898  -1.12199  -1.10915
 Alpha  occ. eigenvalues --   -1.01597  -0.97264  -0.90635  -0.89924  -0.87571
 Alpha  occ. eigenvalues --   -0.86767  -0.86000  -0.82947  -0.81221  -0.79210
 Alpha  occ. eigenvalues --   -0.77356  -0.77232  -0.75191  -0.73649  -0.72495
 Alpha  occ. eigenvalues --   -0.71027  -0.70665  -0.69965  -0.69036  -0.68662
 Alpha  occ. eigenvalues --   -0.67441  -0.66455  -0.66126  -0.65693  -0.65596
 Alpha  occ. eigenvalues --   -0.64996  -0.64788  -0.64046  -0.63778  -0.63457
 Alpha  occ. eigenvalues --   -0.61850  -0.61151  -0.58250  -0.57682  -0.57482
 Alpha  occ. eigenvalues --   -0.56685  -0.56212  -0.55766  -0.55447  -0.55130
 Alpha  occ. eigenvalues --   -0.55073  -0.54670  -0.54203  -0.53731  -0.53443
 Alpha  occ. eigenvalues --   -0.52927  -0.52456  -0.52235  -0.52180  -0.52043
 Alpha  occ. eigenvalues --   -0.51910  -0.51351  -0.51278  -0.51038  -0.50565
 Alpha  occ. eigenvalues --   -0.50279  -0.49871  -0.49572  -0.49526  -0.48779
 Alpha  occ. eigenvalues --   -0.48537  -0.48229  -0.47632  -0.47367  -0.46712
 Alpha  occ. eigenvalues --   -0.45785  -0.45588  -0.45008  -0.44840  -0.43872
 Alpha  occ. eigenvalues --   -0.43446  -0.42975  -0.42565  -0.42278  -0.42019
 Alpha  occ. eigenvalues --   -0.41359  -0.40993  -0.40579  -0.40152  -0.39275
 Alpha  occ. eigenvalues --   -0.38261  -0.37693  -0.36995  -0.35930  -0.35567
 Alpha  occ. eigenvalues --   -0.34539  -0.32763  -0.31339
 Alpha virt. eigenvalues --    0.00163   0.02331   0.04745   0.08232   0.10825
 Alpha virt. eigenvalues --    0.11538   0.12420   0.13390   0.13939   0.14111
 Alpha virt. eigenvalues --    0.15024   0.15369   0.16255   0.16562   0.17569
 Alpha virt. eigenvalues --    0.18133   0.18451   0.18682   0.19686   0.19747
 Alpha virt. eigenvalues --    0.20491   0.21430   0.21514   0.21644   0.21989
 Alpha virt. eigenvalues --    0.22417   0.22525   0.23104   0.23366   0.23689
 Alpha virt. eigenvalues --    0.23837   0.25479   0.25967   0.26078   0.26309
 Alpha virt. eigenvalues --    0.26727   0.27097   0.27784   0.27898   0.28302
 Alpha virt. eigenvalues --    0.28846   0.28926   0.29102   0.29323   0.29952
 Alpha virt. eigenvalues --    0.30524   0.31132   0.31851   0.32025   0.32395
 Alpha virt. eigenvalues --    0.32797   0.33485   0.34399   0.34823   0.35520
 Alpha virt. eigenvalues --    0.35978   0.36999   0.38032   0.38325   0.39678
 Alpha virt. eigenvalues --    0.42020   0.43026   0.48026   0.50919   0.51566
 Alpha virt. eigenvalues --    0.53758   0.54263   0.54546   0.55347   0.56082
 Alpha virt. eigenvalues --    0.56581   0.57076   0.57748   0.57878   0.58179
 Alpha virt. eigenvalues --    0.58612   0.59247   0.59913   0.60475   0.61234
 Alpha virt. eigenvalues --    0.61512   0.62596   0.62691   0.63515   0.64321
 Alpha virt. eigenvalues --    0.64831   0.65135   0.65707   0.66616   0.67397
 Alpha virt. eigenvalues --    0.67696   0.68541   0.69018   0.69553   0.70519
 Alpha virt. eigenvalues --    0.70714   0.71425   0.72003   0.72292   0.73159
 Alpha virt. eigenvalues --    0.73855   0.74428   0.74767   0.76185   0.76882
 Alpha virt. eigenvalues --    0.77542   0.78557   0.79159   0.79588   0.80814
 Alpha virt. eigenvalues --    0.81935   0.83523   0.83675   0.84426   0.85841
 Alpha virt. eigenvalues --    0.85974   0.86980   0.87456   0.87695   0.88500
 Alpha virt. eigenvalues --    0.89557   0.89922   0.90417   0.90866   0.91356
 Alpha virt. eigenvalues --    0.92011   0.92623   0.93386   0.93526   0.94122
 Alpha virt. eigenvalues --    0.94683   0.95008   0.95199   0.95840   0.96790
 Alpha virt. eigenvalues --    0.96987   0.97259   0.97597   0.98260   0.98956
 Alpha virt. eigenvalues --    0.99857   1.00283   1.01028   1.01576   1.02364
 Alpha virt. eigenvalues --    1.02777   1.03090   1.03809   1.04728   1.05124
 Alpha virt. eigenvalues --    1.05442   1.05821   1.06699   1.07043   1.07664
 Alpha virt. eigenvalues --    1.08791   1.09466   1.09769   1.10505   1.10734
 Alpha virt. eigenvalues --    1.11085   1.12000   1.12573   1.13583   1.13722
 Alpha virt. eigenvalues --    1.14765   1.15626   1.16991   1.17331   1.17706
 Alpha virt. eigenvalues --    1.18750   1.20533   1.21440   1.22260   1.23424
 Alpha virt. eigenvalues --    1.25225   1.26781   1.27124   1.28206   1.29221
 Alpha virt. eigenvalues --    1.30189   1.30999   1.31556   1.32515   1.33293
 Alpha virt. eigenvalues --    1.33852   1.34573   1.35130   1.35775   1.36246
 Alpha virt. eigenvalues --    1.36542   1.37360   1.38548   1.39330   1.39594
 Alpha virt. eigenvalues --    1.40351   1.40688   1.41870   1.42636   1.42866
 Alpha virt. eigenvalues --    1.43622   1.44164   1.44415   1.44685   1.45620
 Alpha virt. eigenvalues --    1.46326   1.47753   1.48444   1.49772   1.49887
 Alpha virt. eigenvalues --    1.50615   1.51352   1.51895   1.52712   1.53361
 Alpha virt. eigenvalues --    1.54345   1.55767   1.56449   1.57317   1.58692
 Alpha virt. eigenvalues --    1.59566   1.60328   1.60641   1.61931   1.62745
 Alpha virt. eigenvalues --    1.63319   1.63644   1.64699   1.65023   1.66085
 Alpha virt. eigenvalues --    1.67597   1.69036   1.69246   1.70050   1.70208
 Alpha virt. eigenvalues --    1.71041   1.71521   1.72589   1.73332   1.73758
 Alpha virt. eigenvalues --    1.74340   1.74874   1.75414   1.76405   1.76758
 Alpha virt. eigenvalues --    1.77182   1.78360   1.79046   1.79529   1.79620
 Alpha virt. eigenvalues --    1.80547   1.80841   1.81478   1.83061   1.83420
 Alpha virt. eigenvalues --    1.84339   1.85619   1.85941   1.86283   1.87123
 Alpha virt. eigenvalues --    1.87405   1.87432   1.87945   1.88528   1.89031
 Alpha virt. eigenvalues --    1.89351   1.90237   1.90282   1.90987   1.92073
 Alpha virt. eigenvalues --    1.92326   1.92688   1.92797   1.93533   1.94866
 Alpha virt. eigenvalues --    1.95807   1.96446   1.97463   1.98025   1.98719
 Alpha virt. eigenvalues --    1.98888   1.99697   2.00087   2.01233   2.01514
 Alpha virt. eigenvalues --    2.01884   2.02470   2.03093   2.03821   2.04386
 Alpha virt. eigenvalues --    2.04979   2.05143   2.05980   2.07006   2.07212
 Alpha virt. eigenvalues --    2.07356   2.07890   2.08210   2.08458   2.09231
 Alpha virt. eigenvalues --    2.09530   2.10298   2.10912   2.11229   2.11831
 Alpha virt. eigenvalues --    2.12205   2.12612   2.13084   2.13258   2.13713
 Alpha virt. eigenvalues --    2.14379   2.15067   2.15683   2.16384   2.17043
 Alpha virt. eigenvalues --    2.17990   2.18423   2.18769   2.19153   2.19582
 Alpha virt. eigenvalues --    2.19837   2.20197   2.21254   2.22206   2.22800
 Alpha virt. eigenvalues --    2.23801   2.24338   2.25122   2.25527   2.25808
 Alpha virt. eigenvalues --    2.26473   2.27670   2.28506   2.29378   2.30634
 Alpha virt. eigenvalues --    2.31378   2.31566   2.32067   2.33085   2.33409
 Alpha virt. eigenvalues --    2.33597   2.34489   2.35468   2.35823   2.36693
 Alpha virt. eigenvalues --    2.37304   2.37827   2.38544   2.38780   2.38955
 Alpha virt. eigenvalues --    2.39819   2.40237   2.40905   2.42105   2.43175
 Alpha virt. eigenvalues --    2.43744   2.43982   2.44294   2.44626   2.45785
 Alpha virt. eigenvalues --    2.47150   2.47879   2.49171   2.50278   2.51170
 Alpha virt. eigenvalues --    2.51868   2.53030   2.53460   2.53552   2.55505
 Alpha virt. eigenvalues --    2.56299   2.56575   2.57534   2.59473   2.60232
 Alpha virt. eigenvalues --    2.60513   2.61645   2.62074   2.62582   2.62719
 Alpha virt. eigenvalues --    2.63773   2.64626   2.65065   2.65889   2.67620
 Alpha virt. eigenvalues --    2.67853   2.70042   2.70506   2.71669   2.72308
 Alpha virt. eigenvalues --    2.73579   2.73887   2.74688   2.75126   2.76586
 Alpha virt. eigenvalues --    2.77593   2.78265   2.78879   2.79719   2.80677
 Alpha virt. eigenvalues --    2.81003   2.82378   2.83237   2.83357   2.83886
 Alpha virt. eigenvalues --    2.84669   2.85429   2.86283   2.86972   2.88087
 Alpha virt. eigenvalues --    2.88201   2.88978   2.90198   2.90380   2.91429
 Alpha virt. eigenvalues --    2.92317   2.92712   2.93865   2.94551   2.95427
 Alpha virt. eigenvalues --    2.96355   2.96535   2.97424   2.97683   2.98337
 Alpha virt. eigenvalues --    2.98547   2.99535   3.00377   3.00540   3.00978
 Alpha virt. eigenvalues --    3.01561   3.02143   3.02955   3.04039   3.04529
 Alpha virt. eigenvalues --    3.06667   3.07704   3.08849   3.10161   3.12083
 Alpha virt. eigenvalues --    3.12983   3.13951   3.15656   3.17028   3.20386
 Alpha virt. eigenvalues --    3.22665   3.23096   3.27020   3.28711   3.29070
 Alpha virt. eigenvalues --    3.29466   3.31664   3.34476   3.34740   3.35722
 Alpha virt. eigenvalues --    3.37264   3.38392   3.38920   3.39933   3.41082
 Alpha virt. eigenvalues --    3.42391   3.42951   3.44849   3.45945   3.48164
 Alpha virt. eigenvalues --    3.48831   3.52736   3.53941   3.56149   3.56423
 Alpha virt. eigenvalues --    3.56607   3.59151   3.61448   3.62762   3.63106
 Alpha virt. eigenvalues --    3.66036   3.67503   3.98002   4.11075   4.12368
 Alpha virt. eigenvalues --    4.18841   4.21744   4.28524   4.32428   4.36943
 Alpha virt. eigenvalues --    4.41104   4.43653   4.45540   4.49831   4.51352
 Alpha virt. eigenvalues --    4.54082   4.60017   4.64402   4.67610   4.68133
 Alpha virt. eigenvalues --    4.71063   4.72327   4.75734   4.77952   4.81358
 Alpha virt. eigenvalues --    4.86290   4.92976   5.00714   5.06699   5.28269
 Alpha virt. eigenvalues --    5.35688   5.44479   5.62563   5.80673   6.07831
 Alpha virt. eigenvalues --    6.71378   7.21199
          Condensed to atoms (all electrons):
 Mulliken charges:
               1
     1  C   -0.320075
     2  C   -0.175676
     3  C   -0.170991
     4  C   -0.180413
     5  C   -0.079093
     6  C   -0.179590
     7  C   -0.322005
     8  C    0.057544
     9  O   -0.511108
    10  C    0.045034
    11  C   -0.204879
    12  C   -0.047443
    13  N   -0.548108
    14  C    0.573280
    15  C    0.545883
    16  F   -0.287671
    17  F   -0.267950
    18  C    0.477524
    19  F   -0.279139
    20  O   -0.488859
    21  C    0.773043
    22  F   -0.244544
    23  F   -0.243161
    24  C    0.518119
    25  F   -0.267669
    26  F   -0.250607
    27  C    0.175471
    28  C    0.615663
    29  F   -0.273776
    30  C    0.529704
    31  O   -0.472309
    32  O   -0.444799
    33  F   -0.262936
    34  F   -0.284678
    35  O   -0.500234
    36  H    0.102354
    37  H    0.101318
    38  H    0.098536
    39  H    0.096355
    40  H    0.092823
    41  H    0.092941
    42  H    0.090590
    43  H    0.089168
    44  H    0.097457
    45  H    0.083982
    46  H    0.095336
    47  H    0.091238
    48  H    0.110173
    49  H    0.101647
    50  H    0.103236
    51  H    0.087614
    52  H    0.101930
    53  H    0.099617
    54  H    0.105425
    55  H    0.124799
    56  H    0.106709
    57  H    0.137804
    58  H    0.130263
    59  H    0.293137
    60  H    0.361997
 Sum of Mulliken charges =   0.00000
 Mulliken charges with hydrogens summed into heavy atoms:
               1
     1  C   -0.017866
     2  C    0.013503
     3  C    0.012540
     4  C    0.006213
     5  C    0.004889
     6  C    0.006984
     7  C   -0.006949
     8  C    0.247088
     9  O   -0.511108
    10  C    0.250076
    11  C    0.026629
    12  C    0.220624
    13  N   -0.254972
    14  C    0.573280
    15  C    0.545883
    16  F   -0.287671
    17  F   -0.267950
    18  C    0.477524
    19  F   -0.279139
    20  O   -0.488859
    21  C    0.773043
    22  F   -0.244544
    23  F   -0.243161
    24  C    0.518119
    25  F   -0.267669
    26  F   -0.250607
    27  C    0.175471
    28  C    0.615663
    29  F   -0.273776
    30  C    0.529704
    31  O   -0.110312
    32  O   -0.444799
    33  F   -0.262936
    34  F   -0.284678
    35  O   -0.500234
 Electronic spatial extent (au):  <R**2>=          32129.4244
 Charge=              0.0000 electrons
 Dipole moment (field-independent basis, Debye):
    X=             -4.2329    Y=              0.8301    Z=              2.4192  Tot=              4.9456
 Quadrupole moment (field-independent basis, Debye-Ang):
   XX=           -213.5660   YY=           -201.5959   ZZ=           -194.0333
   XY=              7.5288   XZ=             28.1390   YZ=              0.2869
 Traceless Quadrupole moment (field-independent basis, Debye-Ang):
   XX=            -10.5010   YY=              1.4692   ZZ=              9.0318
   XY=              7.5288   XZ=             28.1390   YZ=              0.2869
 Octapole moment (field-independent basis, Debye-Ang**2):
  XXX=          -1282.9705  YYY=             22.9422  ZZZ=             75.8272  XYY=           -384.0007
  XXY=              4.9554  XXZ=            161.3322  XZZ=           -327.7578  YZZ=             37.9339
  YYZ=             15.7370  XYZ=             15.9340
 Hexadecapole moment (field-independent basis, Debye-Ang**3):
 XXXX=         -34234.2603 YYYY=          -2376.4317 ZZZZ=          -2606.9228 XXXY=             44.5128
 XXXZ=           1104.9612 YYYX=            288.6188 YYYZ=           -530.9082 ZZZX=            430.1462
 ZZZY=           -474.2499 XXYY=          -5962.1421 XXZZ=          -5362.3118 YYZZ=           -843.7865
 XXYZ=             -2.4024 YYXZ=             85.9034 ZZXY=            277.9322
 N-N= 4.429960281882D+03 E-N=-1.396168297486D+04  KE= 2.150890413253D+03
 No NMR shielding tensors so no spin-rotation constants.
 Leave Link  601 at Mon Feb  3 21:45:59 2025, MaxMem=  5368709120 cpu:         4.6
 (Enter /home/k0335/k033513/app/g09/l9999.exe)
 1\1\GINC-C15U01N1\SP\RCAM-B3LYP\6-31G(d,p)\C19H25F10N1O5\K033513\03-Fe
 b-2025\0\\#p CAM-B3LYP/6-31G(d,p) SCRF=(PCM,Solvent=Generic,Read) NoSy
 mm out=wfn\\Title EHOPA1_neu\\0,1\C,0,-6.006625,3.028604,1.891316\C,0,
 -5.795606,1.540682,1.651894\C,0,-4.3203,1.220536,1.411125\C,0,-4.01653
 5,-0.278421,1.284665\C,0,-4.130064,-0.919128,-0.11966\C,0,-5.557908,-1
 .034606,-0.682755\C,0,-6.513411,-1.814043,0.209039\C,0,-3.22616,-0.236
 16,-1.168065\O,0,-1.896817,-0.032064,-0.690364\C,0,-1.046902,-1.17142,
 -0.803195\C,0,-0.407408,-1.266732,-2.187046\C,0,0.284871,0.022795,-2.6
 26464\N,0,1.360228,0.421008,-1.741803\C,0,2.612217,-0.178761,-1.771425
 \C,0,3.587709,0.388835,-0.724769\F,0,2.912378,0.674949,0.431814\F,0,4.
 092636,1.581382,-1.153121\C,0,4.730348,-0.579104,-0.408081\F,0,4.18142
 6,-1.806645,-0.13863\O,0,5.618055,-0.813603,-1.519425\C,0,6.884886,-1.
 126104,-0.946934\F,0,7.726121,-0.130461,-1.30187\F,0,7.362073,-2.26262
 5,-1.488754\C,0,6.714536,-1.19615,0.559952\F,0,6.296353,-2.442776,0.92
 2217\F,0,7.828608,-0.961572,1.271218\C,0,5.602046,-0.210727,0.795552\C
 ,0,6.052522,1.239992,0.8282\F,0,4.962809,2.029433,1.067746\C,0,7.11829
 6,1.492853,1.895158\O,0,6.654086,1.443341,3.161508\O,0,8.302184,1.7178
 52,1.692913\F,0,6.493457,1.617103,-0.40106\F,0,4.960429,-0.49665,1.965
 658\O,0,2.903713,-1.036225,-2.601047\H,0,-5.445846,3.369192,2.767556\H
 ,0,-5.681754,3.614435,1.025559\H,0,-7.066637,3.238072,2.06493\H,0,-6.4
 0396,1.240276,0.796345\H,0,-6.160352,0.984651,2.522951\H,0,-3.949333,1
 .776237,0.544335\H,0,-3.753802,1.596337,2.273976\H,0,-4.621277,-0.8416
 57,2.004961\H,0,-2.980342,-0.423136,1.62039\H,0,-3.759392,-1.946037,0.
 004456\H,0,-5.971916,-0.043579,-0.894795\H,0,-5.510808,-1.552036,-1.65
 0162\H,0,-6.712756,-1.29084,1.147912\H,0,-7.472603,-1.951688,-0.301291
 \H,0,-6.111079,-2.804825,0.443398\H,0,-3.213406,-0.809137,-2.102297\H,
 0,-3.627099,0.751306,-1.419837\H,0,-1.585105,-2.094197,-0.563095\H,0,-
 0.26323,-1.058754,-0.046339\H,0,0.304499,-2.100208,-2.190425\H,0,-1.17
 8082,-1.502988,-2.929568\H,0,0.699517,-0.114766,-3.631326\H,0,-0.42461
 1,0.85528,-2.672803\H,0,1.134291,1.042438,-0.969222\H,0,7.430831,1.640
 241,3.72965\\Version=ES64L-G09RevD.01\HF=-2167.5825987\RMSD=8.213e-09\
 Dipole=-1.6653485,0.3265898,0.9517749\Quadrupole=-7.807211,1.0923141,6
 .7148969,5.5975097,20.9206371,0.2133333\PG=C01 [X(C19H25F10N1O5)]\\@

 Writing a WFN file to "cytop/EHOPA1/EHOPA1_neu.wfn"


 THE 2ND LAW OF THERMODYNAMICS HAS THE SAME
 DEGREE OF TRUTH AS THE STATEMENT THAT IF YOU THROW
 A TUMBLERFULL OF WATER INTO THE SEA, YOU CANNOT GET
 THE SAME TUMBLERFULL OF WATER OUT AGAIN.
          - J.C. MAXWELL, LETTER TO LORD RAYLEIGH, DECEMBER 6,1870
 Job cpu time:       0 days  0 hours 20 minutes 20.4 seconds.
 File lengths (MBytes):  RWF=    515 Int=      0 D2E=      0 Chk=     17 Scr=      1
 Normal termination of Gaussian 09 at Mon Feb  3 21:46:00 2025.
