 Entering Gaussian System, Link 0=g09
 Initial command:
 /home/k0335/k033513/app/g09/l1.exe "/home/k0335/k033513/app/g09/scratch/Gau-681604.inp" -scrdir="/home/k0335/k033513/app/g09/scratch/"
 Default is to use a total of  36 processors:
                               36 via shared-memory
                                1 via Linda
 Entering Link 1 = /home/k0335/k033513/app/g09/l1.exe PID=    681605.
  
 Copyright (c) 1988,1990,1992,1993,1995,1998,2003,2009,2013,
            Gaussian, Inc.  All Rights Reserved.
  
 This is part of the Gaussian(R) 09 program.  It is based on
 the Gaussian(R) 03 system (copyright 2003, Gaussian, Inc.),
 the Gaussian(R) 98 system (copyright 1998, Gaussian, Inc.),
 the Gaussian(R) 94 system (copyright 1995, Gaussian, Inc.),
 the Gaussian 92(TM) system (copyright 1992, Gaussian, Inc.),
 the Gaussian 90(TM) system (copyright 1990, Gaussian, Inc.),
 the Gaussian 88(TM) system (copyright 1988, Gaussian, Inc.),
 the Gaussian 86(TM) system (copyright 1986, Carnegie Mellon
 University), and the Gaussian 82(TM) system (copyright 1983,
 Carnegie Mellon University). Gaussian is a federally registered
 trademark of Gaussian, Inc.
  
 This software contains proprietary and confidential information,
 including trade secrets, belonging to Gaussian, Inc.
  
 This software is provided under written license and may be
 used, copied, transmitted, or stored only in accord with that
 written license.
  
 The following legend is applicable only to US Government
 contracts under FAR:
  
                    RESTRICTED RIGHTS LEGEND
  
 Use, reproduction and disclosure by the US Government is
 subject to restrictions as set forth in subparagraphs (a)
 and (c) of the Commercial Computer Software - Restricted
 Rights clause in FAR 52.227-19.
  
 Gaussian, Inc.
 340 Quinnipiac St., Bldg. 40, Wallingford CT 06492
  
  
 ---------------------------------------------------------------
 Warning -- This program may not be used in any manner that
 competes with the business of Gaussian, Inc. or will provide
 assistance to any competitor of Gaussian, Inc.  The licensee
 of this program is prohibited from giving any competitor of
 Gaussian, Inc. access to this program.  By using this program,
 the user acknowledges that Gaussian, Inc. is engaged in the
 business of creating and licensing software in the field of
 computational chemistry and represents and warrants to the
 licensee that it is not a competitor of Gaussian, Inc. and that
 it will not use this program in any manner prohibited above.
 ---------------------------------------------------------------
  

 Cite this work as:
 Gaussian 09, Revision D.01,
 M. J. Frisch, G. W. Trucks, H. B. Schlegel, G. E. Scuseria, 
 M. A. Robb, J. R. Cheeseman, G. Scalmani, V. Barone, B. Mennucci, 
 G. A. Petersson, H. Nakatsuji, M. Caricato, X. Li, H. P. Hratchian, 
 A. F. Izmaylov, J. Bloino, G. Zheng, J. L. Sonnenberg, M. Hada, 
 M. Ehara, K. Toyota, R. Fukuda, J. Hasegawa, M. Ishida, T. Nakajima, 
 Y. Honda, O. Kitao, H. Nakai, T. Vreven, J. A. Montgomery, Jr., 
 J. E. Peralta, F. Ogliaro, M. Bearpark, J. J. Heyd, E. Brothers, 
 K. N. Kudin, V. N. Staroverov, T. Keith, R. Kobayashi, J. Normand, 
 K. Raghavachari, A. Rendell, J. C. Burant, S. S. Iyengar, J. Tomasi, 
 M. Cossi, N. Rega, J. M. Millam, M. Klene, J. E. Knox, J. B. Cross, 
 V. Bakken, C. Adamo, J. Jaramillo, R. Gomperts, R. E. Stratmann, 
 O. Yazyev, A. J. Austin, R. Cammi, C. Pomelli, J. W. Ochterski, 
 R. L. Martin, K. Morokuma, V. G. Zakrzewski, G. A. Voth, 
 P. Salvador, J. J. Dannenberg, S. Dapprich, A. D. Daniels, 
 O. Farkas, J. B. Foresman, J. V. Ortiz, J. Cioslowski, 
 and D. J. Fox, Gaussian, Inc., Wallingford CT, 2013.
 
 ******************************************
 Gaussian 09:  ES64L-G09RevD.01 24-Apr-2013
                 3-Mar-2024 
 ******************************************
 %nprocshared=24
 Will use up to   24 processors via shared memory.
 %mem=40GB
 %rwf=A891690742/A891690742_0.rwf
 %nosave
 %chk=A891690742/A891690742_0.chk
 ----------------------------------------------------------------------
 #p CAM-B3LYP/6-31G(d,p) SCRF=(PCM,Solvent=Generic,Read) NoSymm out=wfn
 ----------------------------------------------------------------------
 1/38=1,40=2/1;
 2/12=2,15=1,17=6,18=5,40=1/2;
 3/5=1,6=6,7=101,11=2,16=1,25=1,30=1,70=2203,72=-2,74=-40/1,2,3;
 4//1;
 5/5=2,38=5/2;
 6/7=2,8=2,9=2,10=2,28=1/1;
 99/5=1,6=100,9=1/99;
 Leave Link    1 at Sun Mar  3 18:03:10 2024, MaxMem=  5368709120 cpu:         0.9
 (Enter /home/k0335/k033513/app/g09/l101.exe)
 ------------------
 Title A891690742_0
 ------------------
 Symbolic Z-matrix:
 Charge =  0 Multiplicity = 1
 C                    -4.88699  -2.45071  -1.07029 
 C                    -4.29887  -1.99227   0.25457 
 C                    -2.96738  -1.26995   0.05568 
 C                    -2.37899  -0.81022   1.39359 
 N                    -1.10021  -0.12137   1.21573 
 C                    -1.12603   1.22706   0.92548 
 O                    -2.18009   1.86061   0.8532 
 N                     0.09906   1.81367   0.68351 
 C                     0.12153   3.22564   0.2993 
 C                    -0.06508   3.40466  -1.20955 
 C                    -0.0382    4.8725   -1.6025 
 C                     1.28146   1.10687   0.64437 
 O                     2.32231   1.61717   0.2337 
 N                     1.23235  -0.20143   1.05075 
 C                     2.47965  -0.94871   1.04198 
 F                     3.38764  -0.18777   1.7314 
 F                     2.37389  -2.06096   1.82921 
 C                     3.11315  -1.36861  -0.32048 
 F                     3.41494  -0.28208  -1.08908 
 O                     4.32155  -2.14608  -0.24144 
 C                     5.33798  -1.53532   0.50727 
 F                     6.51659  -2.07488   0.14057 
 F                     5.14173  -1.79371   1.81119 
 F                     5.38736  -0.21196   0.29741 
 C                     2.09784  -2.20386  -1.09191 
 F                     2.59506  -2.57831  -2.29997 
 F                     1.76046  -3.34     -0.44808 
 F                     0.96303  -1.51107  -1.35105 
 C                     0.04923  -0.88022   1.17266 
 O                     0.00751  -2.10934   1.19382 
 H                    -5.07147  -1.5993   -1.73318 
 H                    -5.8389   -2.96487  -0.90478 
 H                    -4.21073  -3.1438   -1.58082 
 H                    -5.01263  -1.3267    0.75379 
 H                    -4.1566   -2.86292   0.90525 
 H                    -2.25906  -1.93521  -0.45322 
 H                    -3.11158  -0.40511  -0.6035 
 H                    -2.2332   -1.67391   2.05349 
 H                    -3.08289  -0.13848   1.89929 
 H                     1.0741    3.66958   0.61262 
 H                    -0.67001   3.75942   0.83878 
 H                     0.72378   2.87077  -1.75232 
 H                    -1.01753   2.96334  -1.52581 
 H                    -0.84005   5.42657  -1.10419 
 H                    -0.17327   4.97813  -2.68346 
 H                     0.91755   5.33314  -1.33295 
 
 NAtoms=     46 NQM=       46 NQMF=       0 NMMI=      0 NMMIF=      0
                NMic=       0 NMicF=      0.
                    Isotopes and Nuclear Properties:
 (Nuclear quadrupole moments (NQMom) in fm**2, nuclear magnetic moments (NMagM)
  in nuclear magnetons)

  Atom         1           2           3           4           5           6           7           8           9          10
 IAtWgt=          12          12          12          12          14          12          16          14          12          12
 AtmWgt=  12.0000000  12.0000000  12.0000000  12.0000000  14.0030740  12.0000000  15.9949146  14.0030740  12.0000000  12.0000000
 NucSpn=           0           0           0           0           2           0           0           2           0           0
 AtZEff=   0.0000000   0.0000000   0.0000000   0.0000000   0.0000000   0.0000000   0.0000000   0.0000000   0.0000000   0.0000000
 NQMom=    0.0000000   0.0000000   0.0000000   0.0000000   2.0440000   0.0000000   0.0000000   2.0440000   0.0000000   0.0000000
 NMagM=    0.0000000   0.0000000   0.0000000   0.0000000   0.4037610   0.0000000   0.0000000   0.4037610   0.0000000   0.0000000
 AtZNuc=   6.0000000   6.0000000   6.0000000   6.0000000   7.0000000   6.0000000   8.0000000   7.0000000   6.0000000   6.0000000

  Atom        11          12          13          14          15          16          17          18          19          20
 IAtWgt=          12          12          16          14          12          19          19          12          19          16
 AtmWgt=  12.0000000  12.0000000  15.9949146  14.0030740  12.0000000  18.9984033  18.9984033  12.0000000  18.9984033  15.9949146
 NucSpn=           0           0           0           2           0           1           1           0           1           0
 AtZEff=   0.0000000   0.0000000   0.0000000   0.0000000   0.0000000   0.0000000   0.0000000   0.0000000   0.0000000   0.0000000
 NQMom=    0.0000000   0.0000000   0.0000000   2.0440000   0.0000000   0.0000000   0.0000000   0.0000000   0.0000000   0.0000000
 NMagM=    0.0000000   0.0000000   0.0000000   0.4037610   0.0000000   2.6288670   2.6288670   0.0000000   2.6288670   0.0000000
 AtZNuc=   6.0000000   6.0000000   8.0000000   7.0000000   6.0000000   9.0000000   9.0000000   6.0000000   9.0000000   8.0000000

  Atom        21          22          23          24          25          26          27          28          29          30
 IAtWgt=          12          19          19          19          12          19          19          19          12          16
 AtmWgt=  12.0000000  18.9984033  18.9984033  18.9984033  12.0000000  18.9984033  18.9984033  18.9984033  12.0000000  15.9949146
 NucSpn=           0           1           1           1           0           1           1           1           0           0
 AtZEff=   0.0000000   0.0000000   0.0000000   0.0000000   0.0000000   0.0000000   0.0000000   0.0000000   0.0000000   0.0000000
 NQMom=    0.0000000   0.0000000   0.0000000   0.0000000   0.0000000   0.0000000   0.0000000   0.0000000   0.0000000   0.0000000
 NMagM=    0.0000000   2.6288670   2.6288670   2.6288670   0.0000000   2.6288670   2.6288670   2.6288670   0.0000000   0.0000000
 AtZNuc=   6.0000000   9.0000000   9.0000000   9.0000000   6.0000000   9.0000000   9.0000000   9.0000000   6.0000000   8.0000000

  Atom        31          32          33          34          35          36          37          38          39          40
 IAtWgt=           1           1           1           1           1           1           1           1           1           1
 AtmWgt=   1.0078250   1.0078250   1.0078250   1.0078250   1.0078250   1.0078250   1.0078250   1.0078250   1.0078250   1.0078250
 NucSpn=           1           1           1           1           1           1           1           1           1           1
 AtZEff=   0.0000000   0.0000000   0.0000000   0.0000000   0.0000000   0.0000000   0.0000000   0.0000000   0.0000000   0.0000000
 NQMom=    0.0000000   0.0000000   0.0000000   0.0000000   0.0000000   0.0000000   0.0000000   0.0000000   0.0000000   0.0000000
 NMagM=    2.7928460   2.7928460   2.7928460   2.7928460   2.7928460   2.7928460   2.7928460   2.7928460   2.7928460   2.7928460
 AtZNuc=   1.0000000   1.0000000   1.0000000   1.0000000   1.0000000   1.0000000   1.0000000   1.0000000   1.0000000   1.0000000

  Atom        41          42          43          44          45          46
 IAtWgt=           1           1           1           1           1           1
 AtmWgt=   1.0078250   1.0078250   1.0078250   1.0078250   1.0078250   1.0078250
 NucSpn=           1           1           1           1           1           1
 AtZEff=   0.0000000   0.0000000   0.0000000   0.0000000   0.0000000   0.0000000
 NQMom=    0.0000000   0.0000000   0.0000000   0.0000000   0.0000000   0.0000000
 NMagM=    2.7928460   2.7928460   2.7928460   2.7928460   2.7928460   2.7928460
 AtZNuc=   1.0000000   1.0000000   1.0000000   1.0000000   1.0000000   1.0000000
 Leave Link  101 at Sun Mar  3 18:03:10 2024, MaxMem=  5368709120 cpu:         0.9
 (Enter /home/k0335/k033513/app/g09/l202.exe)
                          Input orientation:                          
 ---------------------------------------------------------------------
 Center     Atomic      Atomic             Coordinates (Angstroms)
 Number     Number       Type             X           Y           Z
 ---------------------------------------------------------------------
      1          6           0       -4.886992   -2.450705   -1.070295
      2          6           0       -4.298865   -1.992270    0.254574
      3          6           0       -2.967383   -1.269951    0.055679
      4          6           0       -2.378988   -0.810218    1.393585
      5          7           0       -1.100212   -0.121367    1.215727
      6          6           0       -1.126029    1.227057    0.925479
      7          8           0       -2.180086    1.860614    0.853196
      8          7           0        0.099062    1.813668    0.683505
      9          6           0        0.121530    3.225640    0.299302
     10          6           0       -0.065075    3.404656   -1.209552
     11          6           0       -0.038196    4.872497   -1.602499
     12          6           0        1.281461    1.106867    0.644371
     13          8           0        2.322305    1.617168    0.233703
     14          7           0        1.232345   -0.201427    1.050745
     15          6           0        2.479645   -0.948709    1.041985
     16          9           0        3.387643   -0.187769    1.731401
     17          9           0        2.373888   -2.060962    1.829213
     18          6           0        3.113155   -1.368606   -0.320483
     19          9           0        3.414936   -0.282077   -1.089077
     20          8           0        4.321548   -2.146082   -0.241437
     21          6           0        5.337983   -1.535322    0.507266
     22          9           0        6.516593   -2.074880    0.140566
     23          9           0        5.141728   -1.793706    1.811189
     24          9           0        5.387356   -0.211957    0.297408
     25          6           0        2.097838   -2.203863   -1.091908
     26          9           0        2.595062   -2.578313   -2.299972
     27          9           0        1.760463   -3.339998   -0.448080
     28          9           0        0.963030   -1.511071   -1.351052
     29          6           0        0.049226   -0.880221    1.172659
     30          8           0        0.007510   -2.109344    1.193815
     31          1           0       -5.071470   -1.599295   -1.733176
     32          1           0       -5.838903   -2.964868   -0.904780
     33          1           0       -4.210733   -3.143804   -1.580821
     34          1           0       -5.012626   -1.326704    0.753786
     35          1           0       -4.156596   -2.862924    0.905246
     36          1           0       -2.259057   -1.935211   -0.453224
     37          1           0       -3.111580   -0.405112   -0.603497
     38          1           0       -2.233198   -1.673906    2.053488
     39          1           0       -3.082892   -0.138477    1.899288
     40          1           0        1.074104    3.669582    0.612620
     41          1           0       -0.670010    3.759423    0.838778
     42          1           0        0.723781    2.870767   -1.752315
     43          1           0       -1.017526    2.963339   -1.525811
     44          1           0       -0.840053    5.426570   -1.104188
     45          1           0       -0.173265    4.978135   -2.683457
     46          1           0        0.917545    5.333136   -1.332949
 ---------------------------------------------------------------------
                    Distance matrix (angstroms):
                    1          2          3          4          5
     1  C    0.000000
     2  C    1.520307   0.000000
     3  C    2.519305   1.527792   0.000000
     4  C    3.879689   2.525969   1.532173   0.000000
     5  N    4.999141   3.828247   2.480178   1.463358   0.000000
     6  C    5.626179   4.569581   3.222140   2.437113   1.379550
     7  O    5.441932   4.437599   3.325103   2.732202   2.286002
     8  N    6.791276   5.831887   4.393854   3.678277   2.337922
     9  C    7.692983   6.838748   5.459952   4.872186   3.678987
    10  C    7.586536   7.013947   5.645897   5.467694   4.402990
    11  C    8.799054   8.290178   7.004239   6.837330   5.831720
    12  C    7.324357   6.395047   4.903927   4.199455   2.739959
    13  O    8.379855   7.541112   6.028926   5.416612   3.962385
    14  N    6.855972   5.868159   4.446304   3.678300   2.339754
    15  C    7.809293   6.903422   5.544917   4.873307   3.678323
    16  F    9.024409   8.032412   6.660745   5.809957   4.517872
    17  F    7.828118   6.856372   5.683335   4.933960   4.025887
    18  C    8.107744   7.460408   6.092961   5.780438   4.654891
    19  F    8.580519   8.014542   6.558991   6.325512   5.071934
    20  O    9.250784   8.636041   7.347408   7.025312   5.968105
    21  C   10.386373   9.650984   8.321866   7.801473   6.629596
    22  F   11.473848  10.816374   9.518451   9.071978   7.936492
    23  F   10.455134   9.570124   8.313472   7.596237   6.489461
    24  F   10.604001   9.848565   8.424930   7.866106   6.552866
    25  C    6.989224   6.540305   5.276894   5.306778   4.459764
    26  F    7.583503   7.375322   6.180752   6.442802   5.661429
    27  F    6.735477   6.247043   5.185691   5.189082   4.616416
    28  F    5.931652   5.522420   4.181528   4.381017   3.574437
    29  C    5.644777   4.580986   3.240288   2.439248   1.378014
    30  O    5.403598   4.409166   3.293922   2.724520   2.275869
    31  H    1.094688   2.168524   2.781304   4.201040   5.162479
    32  H    1.094483   2.159112   3.469993   4.679317   5.919226
    33  H    1.094691   2.168519   2.781254   4.200953   5.160537
    34  H    2.146260   1.096196   2.161849   2.759012   4.119856
    35  H    2.146198   1.096199   2.161841   2.758979   4.117526
    36  H    2.748191   2.159873   1.096941   2.165802   2.723665
    37  H    2.748534   2.159862   1.096929   2.165442   2.726846
    38  H    4.171817   2.757613   2.166437   1.096669   2.096635
    39  H    4.173679   2.760475   2.166211   1.096564   2.097276
    40  H    8.707743   7.813678   6.406464   5.709848   4.411653
    41  H    7.745527   6.825823   5.584422   4.910197   3.922715
    42  H    7.762988   7.273493   5.834302   5.750958   4.592286
    43  H    6.670242   6.204435   4.921768   4.961470   4.127745
    44  H    8.856090   8.297518   7.121392   6.892366   6.019077
    45  H    8.944785   8.616214   7.372146   7.415694   6.485968
    46  H    9.713383   9.131962   7.785995   7.486115   6.349700
                    6          7          8          9         10
     6  C    0.000000
     7  O    1.231932   0.000000
     8  N    1.379678   2.285938   0.000000
     9  C    2.437793   2.732678   1.463483   0.000000
    10  C    3.228919   3.333507   2.478275   1.530852   0.000000
    11  C    4.567635   4.437293   3.821137   2.520813   1.519765
    12  C    2.426824   3.548810   1.378103   2.440023   3.245000
    13  O    3.538608   4.551325   2.276784   2.726701   3.313258
    14  N    2.760106   3.991957   2.340898   3.680131   4.449278
    15  C    4.212887   5.444358   3.664207   4.851543   5.522391
    16  F    4.798383   5.997226   3.989812   4.936574   5.785843
    17  F    4.886433   6.088518   4.636835   5.946588   6.712348
    18  C    5.124507   6.310609   4.496623   5.517341   5.803070
    19  F    5.191944   6.298239   4.304557   5.007814   5.071192
    20  O    6.512746   7.715120   5.862126   6.840172   7.140756
    21  C    7.041952   8.256719   6.220377   7.065507   7.519567
    22  F    8.362329   9.572261   7.523317   8.307680   8.669861
    23  F    7.013863   8.238978   6.301849   7.258238   7.953530
    24  F    6.699957   7.865789   5.676115   6.288561   6.714151
    25  C    5.121951   6.213215   4.825739   5.943127   6.012281
    26  F    6.223415   7.242139   5.866911   6.823522   6.637866
    27  F    5.574629   6.653391   5.531818   6.808251   7.028712
    28  F    4.128451   5.109417   3.992462   5.086081   5.024081
    29  C    2.425478   3.547403   2.738392   4.198342   4.903893
    30  O    3.533905   4.545565   3.957123   5.410657   6.015450
    31  H    5.533825   5.198114   6.650042   7.374158   7.097725
    32  H    6.567592   6.305767   7.785659   8.677498   8.602372
    33  H    5.907738   5.923864   6.948240   7.929261   7.759294
    34  H    4.653688   4.265227   5.999686   6.876769   7.121708
    35  H    5.090451   5.120655   6.326951   7.465932   7.777884
    36  H    3.631049   4.015129   4.572414   5.733051   5.822351
    37  H    2.990678   2.850114   4.109450   4.944735   4.915570
    38  H    3.303606   3.733143   4.413554   5.712045   6.414045
    39  H    2.577266   2.430171   3.926045   4.913813   5.596954
    40  H    3.302180   3.730951   2.097653   1.096654   2.165231
    41  H    2.574558   2.426111   2.097986   1.096583   2.165055
    42  H    3.646116   4.030079   2.727811   2.167435   1.096322
    43  H    3.005873   2.868314   2.729394   2.167323   1.096332
    44  H    4.673033   4.282883   4.138942   2.781819   2.167909
    45  H    5.291764   5.123884   4.628655   3.472030   2.158689
    46  H    5.112394   5.141299   4.137953   2.781982   2.167903
                   11         12         13         14         15
    11  C    0.000000
    12  C    4.579289   0.000000
    13  O    4.420494   1.229801   0.000000
    14  N    5.865039   1.370834   2.272192   0.000000
    15  C    6.871627   2.412288   2.694773   1.454051   0.000000
    16  F    6.961146   2.700689   2.576013   2.260263   1.370688
    17  F    8.103558   3.554207   4.009608   2.316679   1.366755
    18  C    7.108160   3.227075   3.138059   2.603847   1.560118
    19  F    6.225541   3.079890   2.559438   3.057621   2.420866
    20  O    8.373787   4.539654   4.287748   3.872285   2.544304
    21  C    8.626387   4.843070   4.371195   4.350966   2.966502
    22  F    9.709252   6.146864   5.588555   5.679923   4.286930
    23  F    9.106214   4.967540   4.698050   4.289161   2.896961
    24  F    7.674499   4.326437   3.569915   4.222765   3.090628
    25  C    7.409333   3.826496   4.050668   3.057743   2.504933
    26  F    7.933164   4.896453   4.908764   4.328266   3.719893
    27  F    8.486043   4.604074   5.035274   3.517956   2.907882
    28  F    6.466500   3.307070   3.760978   2.748877   2.888425
    29  C    6.387715   2.397084   3.505065   1.369451   2.434893
    30  O    7.521141   3.502692   4.490766   2.271748   2.735247
    31  H    8.199696   7.303135   8.299527   7.031524   8.071191
    32  H    9.775444   8.347364   9.428495   7.839849   8.777986
    33  H    9.037235   7.292728   8.284922   6.723825   7.513901
    34  H    8.290182   6.749057   7.920737   6.352487   7.507334
    35  H    9.115193   6.737934   7.905590   6.012106   6.908155
    36  H    7.252444   4.795229   5.837820   4.178255   5.065978
    37  H    6.188445   4.810620   5.858125   4.652708   5.853623
    38  H    7.812789   4.697993   5.907232   3.896624   4.874417
    39  H    6.829535   4.708851   5.922214   4.398324   5.686234
    40  H    2.755171   2.571286   2.431869   3.898936   4.846495
    41  H    2.756439   3.298801   3.729520   4.399116   5.668168
    42  H    2.147086   3.027615   2.840961   4.189768   5.047729
    43  H    2.147057   3.666268   4.007809   4.660076   5.841909
    44  H    1.094662   5.120363   5.128548   6.372827   7.501376
    45  H    1.094474   5.308237   5.102332   6.538185   7.486276
    46  H    1.094663   4.680126   4.270383   6.034276   6.895074
                   16         17         18         19         20
    16  F    0.000000
    17  F    2.132163   0.000000
    18  C    2.383264   2.376355   0.000000
    19  F    2.822186   3.572762   1.364681   0.000000
    20  O    2.932449   2.843979   1.439073   2.239409   0.000000
    21  C    2.668001   3.287811   2.379669   2.795898   1.402399
    22  F    3.985257   4.473670   3.506391   3.787670   2.229174
    23  F    2.379541   2.780771   2.973188   3.698429   2.238334
    24  F    2.460848   3.853081   2.625189   2.411990   2.273134
    25  C    3.701257   2.937613   1.524342   2.329810   2.381497
    26  F    4.753404   4.167342   2.377012   2.722345   2.721239
    27  F    4.163460   2.682962   2.394252   3.535398   2.833248
    28  F    4.139009   3.522355   2.388599   2.755159   3.593623
    29  C    3.454954   2.688729   3.443204   4.098930   4.674912
    30  O    3.925143   2.450677   3.533670   4.490106   4.546672
    31  H    9.249448   8.266626   8.308851   8.612143   9.526439
    32  H    9.989539   8.702971   9.112014   9.636642  10.214950
    33  H    8.800243   7.493872   7.640623   8.159787   8.694206
    34  H    8.533313   7.500418   8.196592   8.689718   9.422773
    35  H    8.047020   6.644101   7.522279   8.244161   8.585317
    36  H    6.301695   5.166189   5.403640   5.944019   6.587388
    37  H    6.909333   6.224972   6.305216   6.545711   7.642870
    38  H    5.822903   4.628753   5.857682   6.611681   6.960914
    39  H    6.472900   5.785958   6.695640   7.153511   7.964855
    40  H    4.635007   6.000723   5.514685   4.898048   6.715449
    41  H    5.730763   6.642526   6.477106   6.061116   7.807529
    42  H    5.346689   6.314440   5.072626   4.197931   6.355742
    43  H    6.320160   6.928310   6.105824   5.510915   7.500767
    44  H    7.578574   8.660104   7.900409   7.119959   9.204973
    45  H    7.671871   8.740770   7.527637   6.564074   8.770477
    46  H    6.780267   8.172692   7.124545   6.150370   8.289592
                   21         22         23         24         25
    21  C    0.000000
    22  F    1.347113   0.000000
    23  F    1.343687   2.181810   0.000000
    24  F    1.340811   2.184092   2.203133   0.000000
    25  C    3.674622   4.589229   4.226283   4.088865   0.000000
    26  F    4.061038   4.646297   4.899261   4.488087   1.358993
    27  F    4.119246   4.956592   4.350663   4.847138   1.348755
    28  F    4.753330   5.777964   5.247968   4.896915   1.354587
    29  C    5.370555   6.657271   5.213037   5.450530   3.328228
    30  O    5.405071   6.593837   5.180827   5.774631   3.098860
    31  H   10.648023  11.748204  10.812480  10.744069   7.223275
    32  H   11.356067  12.431537  11.371999  11.621216   7.975337
    33  H    9.905821  10.917019  10.039772  10.210131   6.396921
    34  H   10.355646  11.569732  10.219936  10.469507   7.398290
    35  H    9.595204  10.729525   9.403339   9.923916   6.598555
    36  H    7.667951   8.796825   7.740750   7.874051   4.411647
    37  H    8.596876   9.800177   8.710683   8.548734   5.532819
    38  H    7.728699   8.965428   7.379878   7.955750   5.378870
    39  H    8.648701   9.949516   8.389989   8.620703   6.328747
    40  H    6.729249   7.927318   6.915898   5.811183   6.200871
    41  H    8.014999   9.282987   8.096859   7.263375   6.851957
    42  H    6.768322   7.848509   7.346708   5.954283   5.298683
    43  H    8.047599   9.215390   8.467671   7.377611   6.049276
    44  H    9.446314  10.580237   9.819038   8.516929   8.176482
    45  H    9.109319  10.122960   9.711273   8.169646   7.698833
    46  H    8.372716   9.402089   8.861219   7.306527   7.632663
                   26         27         28         29         30
    26  F    0.000000
    27  F    2.169383   0.000000
    28  F    2.168636   2.190030   0.000000
    29  C    4.628603   3.406704   2.757195   0.000000
    30  O    4.372860   2.698735   2.783397   1.230013   0.000000
    31  H    7.749545   7.166368   6.047230   5.931481   5.884171
    32  H    8.557321   7.622313   6.969862   6.582672   6.270292
    33  H    6.867008   6.080853   5.430141   5.554522   5.153861
    34  H    8.292700   7.167466   6.338202   5.098740   5.099796
    35  H    7.479259   6.088569   5.755776   4.657420   4.241572
    36  H    5.233214   4.257933   3.371622   3.014079   2.807202
    37  H    6.337712   5.689861   4.287707   3.656659   3.982896
    38  H    6.563738   4.998303   4.672610   2.572014   2.439143
    39  H    7.471663   6.262425   5.368259   3.299748   3.732639
    40  H    7.059228   7.122527   5.541436   4.697311   5.905201
    41  H    7.789695   7.613474   5.936353   4.706918   5.918404
    42  H    5.787408   6.430345   4.406672   4.804207   5.830457
    43  H    6.660332   6.972143   4.896273   4.815875   5.846296
    44  H    8.792501   9.167654   7.172371   6.763909   7.923962
    45  H    8.056712   8.827658   6.721329   7.017084   8.080735
    46  H    8.144951   8.758810   6.844382   6.755580   7.912219
                   31         32         33         34         35
    31  H    0.000000
    32  H    1.772000   0.000000
    33  H    1.774708   1.772001   0.000000
    34  H    2.502548   2.473289   3.065171   0.000000
    35  H    3.065130   2.473205   2.502469   1.765134   0.000000
    36  H    3.108180   3.752252   2.557579   3.067458   2.511324
    37  H    2.558010   3.752521   3.108655   2.511080   3.067443
    38  H    4.732883   4.839322   4.390837   3.087879   2.536076
    39  H    4.391267   4.842198   4.734467   2.539278   3.092502
    40  H    8.428043   9.700933   8.897354   7.875981   8.373738
    41  H    7.396192   8.658726   8.126852   6.688365   7.484396
    42  H    7.318931   8.822798   7.781639   7.536954   7.984731
    43  H    6.106971   7.666485   6.891792   6.289822   7.050471
    44  H    8.225770   9.769570   9.221712   8.152861   9.151666
    45  H    8.255788   9.917381   9.136895   8.659391   9.498838
    46  H    9.169901  10.709332   9.910559   9.158322   9.896051
                   36         37         38         39         40
    36  H    0.000000
    37  H    1.758005   0.000000
    38  H    2.520427   3.072615   0.000000
    39  H    3.072665   2.517111   1.761619   0.000000
    40  H    6.607548   5.966743   6.447264   5.782512   0.000000
    41  H    6.051710   5.038330   5.782745   4.705349   1.761009
    42  H    5.803653   5.173119   6.624343   6.072933   2.520664
    43  H    5.166008   4.072123   5.982749   5.061453   3.073529
    44  H    7.525500   6.278459   7.894842   6.709765   3.114231
    45  H    7.557699   6.476054   8.422091   7.459705   3.759304
    46  H    7.980826   7.049357   8.396057   7.509288   2.564598
                   41         42         43         44         45
    41  H    0.000000
    42  H    3.073455   0.000000
    43  H    2.519087   1.758415   0.000000
    44  H    2.565816   3.065579   2.505348   0.000000
    45  H    3.760074   2.472391   2.472311   1.771945   0.000000
    46  H    3.116617   2.505329   3.065556   1.774884   1.771938
                   46
    46  H    0.000000
 Symmetry turned off by external request.
 Stoichiometry    C14H16F9N3O4
 Framework group  C1[X(C14H16F9N3O4)]
 Deg. of freedom   132
 Full point group                 C1      NOp   1
 Rotational constants (GHZ):      0.2243197      0.1136090      0.0915082
 Leave Link  202 at Sun Mar  3 18:03:10 2024, MaxMem=  5368709120 cpu:         0.1
 (Enter /home/k0335/k033513/app/g09/l301.exe)
 Standard basis: 6-31G(d,p) (6D, 7F)
 Ernie: Thresh=  0.10000D-02 Tol=  0.10000D-05 Strict=F.
   530 basis functions,   952 primitive gaussians,   530 cartesian basis functions
   117 alpha electrons      117 beta electrons
       nuclear repulsion energy      3695.5268140329 Hartrees.
 IExCor=20419 DFT=T Ex+Corr=CAM-B3LYP ExCW=0 ScaHFX=  1.000000
 ScaDFX=  1.000000  1.000000  1.000000  0.810000 ScalE2=  1.000000  1.000000
 IRadAn=      0 IRanWt=     -1 IRanGd=            0 ICorTp=0 IEmpDi=  4
  HFx wShort=  0.000000 wLong=  0.330000 cFull=  0.190000 cShort=  0.000000 cLong=  0.460000
  DFx wShort=  0.000000 wLong=  0.330000 cFull=  0.190000 cShort=  0.000000 cLong=  0.460000
 NAtoms=   46 NActive=   46 NUniq=   46 SFac= 1.00D+00 NAtFMM=   60 NAOKFM=F Big=F
 Integral buffers will be    131072 words long.
 Raffenetti 2 integral format.
 Two-electron integral symmetry is turned off.
 Using the following non-standard input for PCM:
 eps=4.9
 --- end of non-standard input.
 ------------------------------------------------------------------------------
 Polarizable Continuum Model (PCM)
 =================================
 Model                : PCM (using non-symmetric T matrix).
 Atomic radii         : UFF (Universal Force Field).
 Polarization charges : Total charges.
 Charge compensation  : None.
 Solution method      : On-the-fly selection.
 Cavity type          : Scaled VdW (van der Waals Surface) (Alpha=1.100).
 Cavity algorithm     : GePol (No added spheres)
                        Default sphere list used, NSphG=   46.
                        Lebedev-Laikov grids with approx.  5.0 points / Ang**2.
                        Smoothing algorithm: Karplus/York (Gamma=1.0000).
                        Polarization charges: spherical gaussians, with
                                              point-specific exponents (IZeta= 3).
                        Self-potential: point-specific (ISelfS= 7).
                        Self-field    : sphere-specific E.n sum rule (ISelfD= 2).
 Solvent              : Generic,
                        Eps                           =   4.900000
                        Eps(infinity)                 =   0.000000
                        RSolv                         =   0.000000 Ang.
                        Molar volume                  =   0.000000 cm**3/mol
                        Thermal expansion coefficient =   0.000000 K**-1
                        Absolute temperature          = 298.150000 K
                        Numeral density               =   0.000000 Ang**-3
                        Hydrogen bond acidity         =   0.000000
                        Hydrogen bond basicity        =   0.000000
                        Surface tension at interface  =   0.000000 (cal/mol)*Ang**-2
                        Carbon aromaticity            =   0.000000
                        Electronegative halogenicity  =   0.000000
 ------------------------------------------------------------------------------
 GePol: Number of generator spheres                  =      46
 GePol: Total number of spheres                      =      46
 GePol: Number of exposed spheres                    =      46 (100.00%)
 GePol: Number of points                             =    3454
 GePol: Average weight of points                     =       0.13
 GePol: Minimum weight of points                     =   0.11D-11
 GePol: Maximum weight of points                     =    0.20577
 GePol: Number of points with low weight             =     177
 GePol: Fraction of low-weight points (<1% of avg)   =       5.12%
 GePol: Cavity surface area                          =    432.488 Ang**2
 GePol: Cavity volume                                =    487.074 Ang**3
 Leave Link  301 at Sun Mar  3 18:03:10 2024, MaxMem=  5368709120 cpu:         0.9
 (Enter /home/k0335/k033513/app/g09/l302.exe)
 NPDir=0 NMtPBC=     1 NCelOv=     1 NCel=       1 NClECP=     1 NCelD=      1
         NCelK=      1 NCelE2=     1 NClLst=     1 CellRange=     0.0.
 One-electron integrals computed using PRISM.
 NBasis=   530 RedAO= T EigKep=  1.24D-03  NBF=   530
 NBsUse=   530 1.00D-06 EigRej= -1.00D+00 NBFU=   530
 Precomputing XC quadrature grid using
 IXCGrd= 4 IRadAn=           0 IRanWt=          -1 IRanGd=           0 AccXCQ= 0.00D+00.
 Generated NRdTot=       0 NPtTot=           0 NUsed=           0 NTot=          32
 NSgBfM=   516   516   516   516   516 MxSgAt=    46 MxSgA2=    46.
 Leave Link  302 at Sun Mar  3 18:03:10 2024, MaxMem=  5368709120 cpu:         9.7
 (Enter /home/k0335/k033513/app/g09/l303.exe)
 DipDrv:  MaxL=1.
 Leave Link  303 at Sun Mar  3 18:03:10 2024, MaxMem=  5368709120 cpu:         0.8
 (Enter /home/k0335/k033513/app/g09/l401.exe)
 ExpMin= 1.61D-01 ExpMax= 7.00D+03 ExpMxC= 1.05D+03 IAcc=1 IRadAn=         1 AccDes= 0.00D+00
 Harris functional with IExCor=20419 and IRadAn=       1 diagonalized for initial guess.
 HarFok:  IExCor=20419 AccDes= 0.00D+00 IRadAn=         1 IDoV= 1 UseB2=F ITyADJ=14
 ICtDFT=  3500011 ScaDFX=  1.000000  1.000000  1.000000  1.000000
 FoFCou: FMM=F IPFlag=           0 FMFlag=      100000 FMFlg1=           0
         NFxFlg=           0 DoJE=T BraDBF=F KetDBF=T FulRan=T
         wScrn=  0.000000 ICntrl=     500 IOpCl=  0 I1Cent=   200000004 NGrid=           0
         NMat0=    1 NMatS0=      1 NMatT0=    0 NMatD0=    1 NMtDS0=    0 NMtDT0=    0
 Symmetry not used in FoFCou.
 Harris En= -1844.75282843566    
 JPrj=0 DoOrth=F DoCkMO=F.
 Leave Link  401 at Sun Mar  3 18:03:11 2024, MaxMem=  5368709120 cpu:        11.7
 (Enter /home/k0335/k033513/app/g09/l502.exe)
 Closed shell SCF:
 Using DIIS extrapolation, IDIIS=  1040.
 Two-electron integral symmetry not used.
 IVT=      877242 IEndB=      877242 NGot=  5368709120 MDV=  5368129949
 LenX=  5368129949 LenY=  5367848519
 Requested convergence on RMS density matrix=1.00D-08 within 128 cycles.
 Requested convergence on MAX density matrix=1.00D-06.
 Requested convergence on             energy=1.00D-06.
 No special actions if energy rises.
 Fock matrices will be formed incrementally for  20 cycles.

 Cycle   1  Pass 1  IDiag  1:
 FoFJK:  IHMeth= 1 ICntrl=       0 DoSepK=T KAlg= 0 I1Cent=   0 FoldK=F
 IRaf=         1 NMat=   1 IRICut=       1 DoRegI=T DoRafI=F ISym2E= 0.
 FoFCou: FMM=F IPFlag=           0 FMFlag=      100000 FMFlg1=           0
         NFxFlg=           0 DoJE=T BraDBF=F KetDBF=F FulRan=T
         wScrn=  0.000000 ICntrl=     500 IOpCl=  0 I1Cent=           0 NGrid=           0
         NMat0=    1 NMatS0=      1 NMatT0=    0 NMatD0=    1 NMtDS0=    0 NMtDT0=    0
 Symmetry not used in FoFCou.
 Inv3:  Mode=1 IEnd=    35790348.
 Iteration    1 A*A^-1 deviation from unit magnitude is 7.33D-15 for   3430.
 Iteration    1 A*A^-1 deviation from orthogonality  is 3.07D-15 for   3442    614.
 Iteration    1 A^-1*A deviation from unit magnitude is 7.55D-15 for   3430.
 Iteration    1 A^-1*A deviation from orthogonality  is 5.62D-11 for   3027   3009.
 E= -1905.63886640145    
 DIIS: error= 5.93D-02 at cycle   1 NSaved=   1.
 NSaved= 1 IEnMin= 1 EnMin= -1905.63886640145     IErMin= 1 ErrMin= 5.93D-02
 ErrMax= 5.93D-02  0.00D+00 EMaxC= 1.00D-01 BMatC= 1.58D+00 BMatP= 1.58D+00
 IDIUse=3 WtCom= 4.07D-01 WtEn= 5.93D-01
 Coeff-Com:  0.100D+01
 Coeff-En:   0.100D+01
 Coeff:      0.100D+01
 Gap=     0.458 Goal=   None    Shift=    0.000
 GapD=    0.458 DampG=2.000 DampE=0.500 DampFc=1.0000 IDamp=-1.
 RMSDP=3.05D-03 MaxDP=1.39D-01              OVMax= 1.85D-01

 Cycle   2  Pass 1  IDiag  1:
 RMSU=  3.05D-03    CP:  1.00D+00
 E= -1905.81604690416     Delta-E=       -0.177180502707 Rises=F Damp=F
 DIIS: error= 1.74D-02 at cycle   2 NSaved=   2.
 NSaved= 2 IEnMin= 2 EnMin= -1905.81604690416     IErMin= 2 ErrMin= 1.74D-02
 ErrMax= 1.74D-02  0.00D+00 EMaxC= 1.00D-01 BMatC= 6.58D-01 BMatP= 1.58D+00
 IDIUse=3 WtCom= 8.26D-01 WtEn= 1.74D-01
 Coeff-Com:  0.368D+00 0.632D+00
 Coeff-En:   0.400D+00 0.600D+00
 Coeff:      0.374D+00 0.626D+00
 Gap=     0.444 Goal=   None    Shift=    0.000
 RMSDP=1.76D-03 MaxDP=1.29D-01 DE=-1.77D-01 OVMax= 1.31D-01

 Cycle   3  Pass 1  IDiag  1:
 RMSU=  1.07D-03    CP:  1.00D+00  5.43D-01
 E= -1906.14232607965     Delta-E=       -0.326279175489 Rises=F Damp=F
 DIIS: error= 1.13D-02 at cycle   3 NSaved=   3.
 NSaved= 3 IEnMin= 3 EnMin= -1906.14232607965     IErMin= 3 ErrMin= 1.13D-02
 ErrMax= 1.13D-02  0.00D+00 EMaxC= 1.00D-01 BMatC= 1.87D-01 BMatP= 6.58D-01
 IDIUse=3 WtCom= 8.87D-01 WtEn= 1.13D-01
 Coeff-Com:  0.104D+00 0.355D+00 0.541D+00
 Coeff-En:   0.000D+00 0.222D+00 0.778D+00
 Coeff:      0.926D-01 0.340D+00 0.568D+00
 Gap=     0.379 Goal=   None    Shift=    0.000
 RMSDP=8.04D-04 MaxDP=6.58D-02 DE=-3.26D-01 OVMax= 8.78D-02

 Cycle   4  Pass 1  IDiag  1:
 RMSU=  3.56D-04    CP:  1.00D+00  6.71D-01  4.35D-01
 E= -1906.26562581126     Delta-E=       -0.123299731616 Rises=F Damp=F
 DIIS: error= 3.75D-03 at cycle   4 NSaved=   4.
 NSaved= 4 IEnMin= 4 EnMin= -1906.26562581126     IErMin= 4 ErrMin= 3.75D-03
 ErrMax= 3.75D-03  0.00D+00 EMaxC= 1.00D-01 BMatC= 1.81D-02 BMatP= 1.87D-01
 IDIUse=3 WtCom= 9.63D-01 WtEn= 3.75D-02
 Coeff-Com:  0.663D-02 0.984D-01 0.294D+00 0.601D+00
 Coeff-En:   0.000D+00 0.000D+00 0.427D-01 0.957D+00
 Coeff:      0.638D-02 0.947D-01 0.284D+00 0.615D+00
 Gap=     0.368 Goal=   None    Shift=    0.000
 RMSDP=2.31D-04 MaxDP=1.74D-02 DE=-1.23D-01 OVMax= 1.97D-02

 Cycle   5  Pass 1  IDiag  1:
 RMSU=  9.57D-05    CP:  1.00D+00  6.63D-01  5.92D-01  6.55D-01
 E= -1906.27781778082     Delta-E=       -0.012191969558 Rises=F Damp=F
 DIIS: error= 6.51D-04 at cycle   5 NSaved=   5.
 NSaved= 5 IEnMin= 5 EnMin= -1906.27781778082     IErMin= 5 ErrMin= 6.51D-04
 ErrMax= 6.51D-04  0.00D+00 EMaxC= 1.00D-01 BMatC= 8.36D-04 BMatP= 1.81D-02
 IDIUse=3 WtCom= 9.93D-01 WtEn= 6.51D-03
 Coeff-Com: -0.131D-02 0.286D-01 0.110D+00 0.306D+00 0.557D+00
 Coeff-En:   0.000D+00 0.000D+00 0.000D+00 0.000D+00 0.100D+01
 Coeff:     -0.130D-02 0.284D-01 0.109D+00 0.304D+00 0.560D+00
 Gap=     0.362 Goal=   None    Shift=    0.000
 RMSDP=4.65D-05 MaxDP=2.70D-03 DE=-1.22D-02 OVMax= 3.83D-03

 Cycle   6  Pass 1  IDiag  1:
 RMSU=  2.73D-05    CP:  1.00D+00  6.67D-01  5.83D-01  6.93D-01  6.72D-01
 E= -1906.27841277881     Delta-E=       -0.000594997985 Rises=F Damp=F
 DIIS: error= 1.83D-04 at cycle   6 NSaved=   6.
 NSaved= 6 IEnMin= 6 EnMin= -1906.27841277881     IErMin= 6 ErrMin= 1.83D-04
 ErrMax= 1.83D-04  0.00D+00 EMaxC= 1.00D-01 BMatC= 3.27D-05 BMatP= 8.36D-04
 IDIUse=3 WtCom= 9.98D-01 WtEn= 1.83D-03
 Coeff-Com: -0.910D-03-0.403D-03 0.644D-02 0.381D-01 0.194D+00 0.763D+00
 Coeff-En:   0.000D+00 0.000D+00 0.000D+00 0.000D+00 0.000D+00 0.100D+01
 Coeff:     -0.908D-03-0.402D-03 0.643D-02 0.381D-01 0.194D+00 0.763D+00
 Gap=     0.362 Goal=   None    Shift=    0.000
 RMSDP=1.29D-05 MaxDP=7.96D-04 DE=-5.95D-04 OVMax= 9.09D-04

 Cycle   7  Pass 1  IDiag  1:
 RMSU=  8.80D-06    CP:  1.00D+00  6.66D-01  5.87D-01  7.07D-01  7.37D-01
                    CP:  9.04D-01
 E= -1906.27843756844     Delta-E=       -0.000024789634 Rises=F Damp=F
 DIIS: error= 6.52D-05 at cycle   7 NSaved=   7.
 NSaved= 7 IEnMin= 7 EnMin= -1906.27843756844     IErMin= 7 ErrMin= 6.52D-05
 ErrMax= 6.52D-05  0.00D+00 EMaxC= 1.00D-01 BMatC= 4.69D-06 BMatP= 3.27D-05
 IDIUse=1 WtCom= 1.00D+00 WtEn= 0.00D+00
 Coeff-Com: -0.148D-03-0.312D-02-0.817D-02-0.141D-01 0.329D-01 0.336D+00
 Coeff-Com:  0.657D+00
 Coeff:     -0.148D-03-0.312D-02-0.817D-02-0.141D-01 0.329D-01 0.336D+00
 Coeff:      0.657D+00
 Gap=     0.362 Goal=   None    Shift=    0.000
 RMSDP=4.10D-06 MaxDP=2.43D-04 DE=-2.48D-05 OVMax= 3.21D-04

 Cycle   8  Pass 1  IDiag  1:
 RMSU=  2.47D-06    CP:  1.00D+00  6.66D-01  5.87D-01  7.06D-01  7.54D-01
                    CP:  9.87D-01  8.16D-01
 E= -1906.27844191595     Delta-E=       -0.000004347507 Rises=F Damp=F
 DIIS: error= 7.45D-06 at cycle   8 NSaved=   8.
 NSaved= 8 IEnMin= 8 EnMin= -1906.27844191595     IErMin= 8 ErrMin= 7.45D-06
 ErrMax= 7.45D-06  0.00D+00 EMaxC= 1.00D-01 BMatC= 1.73D-07 BMatP= 4.69D-06
 IDIUse=1 WtCom= 1.00D+00 WtEn= 0.00D+00
 Coeff-Com:  0.648D-05-0.889D-03-0.261D-02-0.687D-02-0.507D-02 0.321D-01
 Coeff-Com:  0.157D+00 0.827D+00
 Coeff:      0.648D-05-0.889D-03-0.261D-02-0.687D-02-0.507D-02 0.321D-01
 Coeff:      0.157D+00 0.827D+00
 Gap=     0.362 Goal=   None    Shift=    0.000
 RMSDP=1.31D-06 MaxDP=1.09D-04 DE=-4.35D-06 OVMax= 1.65D-04

 Cycle   9  Pass 1  IDiag  1:
 RMSU=  8.35D-07    CP:  1.00D+00  6.66D-01  5.87D-01  7.06D-01  7.58D-01
                    CP:  1.00D+00  8.83D-01  1.10D+00
 E= -1906.27844211714     Delta-E=       -0.000000201196 Rises=F Damp=F
 DIIS: error= 4.30D-06 at cycle   9 NSaved=   9.
 NSaved= 9 IEnMin= 9 EnMin= -1906.27844211714     IErMin= 9 ErrMin= 4.30D-06
 ErrMax= 4.30D-06  0.00D+00 EMaxC= 1.00D-01 BMatC= 4.68D-08 BMatP= 1.73D-07
 IDIUse=1 WtCom= 1.00D+00 WtEn= 0.00D+00
 Coeff-Com:  0.207D-04 0.103D-03 0.238D-03-0.813D-03-0.750D-02-0.411D-01
 Coeff-Com: -0.354D-01 0.377D+00 0.708D+00
 Coeff:      0.207D-04 0.103D-03 0.238D-03-0.813D-03-0.750D-02-0.411D-01
 Coeff:     -0.354D-01 0.377D+00 0.708D+00
 Gap=     0.362 Goal=   None    Shift=    0.000
 RMSDP=5.51D-07 MaxDP=4.64D-05 DE=-2.01D-07 OVMax= 6.81D-05

 Cycle  10  Pass 1  IDiag  1:
 RMSU=  3.04D-07    CP:  1.00D+00  6.66D-01  5.88D-01  7.06D-01  7.60D-01
                    CP:  1.01D+00  9.04D-01  1.22D+00  9.32D-01
 E= -1906.27844216147     Delta-E=       -0.000000044328 Rises=F Damp=F
 DIIS: error= 1.35D-06 at cycle  10 NSaved=  10.
 NSaved=10 IEnMin=10 EnMin= -1906.27844216147     IErMin=10 ErrMin= 1.35D-06
 ErrMax= 1.35D-06  0.00D+00 EMaxC= 1.00D-01 BMatC= 3.08D-09 BMatP= 4.68D-08
 IDIUse=1 WtCom= 1.00D+00 WtEn= 0.00D+00
 Coeff-Com:  0.737D-05 0.111D-03 0.325D-03 0.273D-03-0.197D-02-0.169D-01
 Coeff-Com: -0.252D-01 0.626D-01 0.251D+00 0.730D+00
 Coeff:      0.737D-05 0.111D-03 0.325D-03 0.273D-03-0.197D-02-0.169D-01
 Coeff:     -0.252D-01 0.626D-01 0.251D+00 0.730D+00
 Gap=     0.362 Goal=   None    Shift=    0.000
 RMSDP=1.55D-07 MaxDP=1.25D-05 DE=-4.43D-08 OVMax= 2.05D-05

 Cycle  11  Pass 1  IDiag  1:
 RMSU=  1.04D-07    CP:  1.00D+00  6.66D-01  5.88D-01  7.06D-01  7.60D-01
                    CP:  1.01D+00  9.10D-01  1.24D+00  1.00D+00  9.33D-01
 E= -1906.27844216407     Delta-E=       -0.000000002596 Rises=F Damp=F
 DIIS: error= 7.52D-07 at cycle  11 NSaved=  11.
 NSaved=11 IEnMin=11 EnMin= -1906.27844216407     IErMin=11 ErrMin= 7.52D-07
 ErrMax= 7.52D-07  0.00D+00 EMaxC= 1.00D-01 BMatC= 5.97D-10 BMatP= 3.08D-09
 IDIUse=1 WtCom= 1.00D+00 WtEn= 0.00D+00
 Coeff-Com:  0.177D-05 0.445D-04 0.143D-03 0.209D-03-0.114D-03-0.408D-02
 Coeff-Com: -0.878D-02-0.895D-02 0.461D-01 0.343D+00 0.632D+00
 Coeff:      0.177D-05 0.445D-04 0.143D-03 0.209D-03-0.114D-03-0.408D-02
 Coeff:     -0.878D-02-0.895D-02 0.461D-01 0.343D+00 0.632D+00
 Gap=     0.362 Goal=   None    Shift=    0.000
 RMSDP=5.50D-08 MaxDP=5.65D-06 DE=-2.60D-09 OVMax= 5.92D-06

 Cycle  12  Pass 1  IDiag  1:
 RMSU=  3.47D-08    CP:  1.00D+00  6.66D-01  5.88D-01  7.06D-01  7.60D-01
                    CP:  1.01D+00  9.10D-01  1.25D+00  1.02D+00  1.02D+00
                    CP:  8.60D-01
 E= -1906.27844216449     Delta-E=       -0.000000000422 Rises=F Damp=F
 DIIS: error= 2.57D-07 at cycle  12 NSaved=  12.
 NSaved=12 IEnMin=12 EnMin= -1906.27844216449     IErMin=12 ErrMin= 2.57D-07
 ErrMax= 2.57D-07  0.00D+00 EMaxC= 1.00D-01 BMatC= 8.07D-11 BMatP= 5.97D-10
 IDIUse=1 WtCom= 1.00D+00 WtEn= 0.00D+00
 Coeff-Com: -0.303D-06 0.421D-05 0.230D-04 0.584D-04 0.308D-03 0.731D-03
 Coeff-Com: -0.121D-03-0.136D-01-0.178D-01 0.419D-01 0.283D+00 0.705D+00
 Coeff:     -0.303D-06 0.421D-05 0.230D-04 0.584D-04 0.308D-03 0.731D-03
 Coeff:     -0.121D-03-0.136D-01-0.178D-01 0.419D-01 0.283D+00 0.705D+00
 Gap=     0.362 Goal=   None    Shift=    0.000
 RMSDP=2.13D-08 MaxDP=2.00D-06 DE=-4.22D-10 OVMax= 2.35D-06

 Cycle  13  Pass 1  IDiag  1:
 RMSU=  1.13D-08    CP:  1.00D+00  6.66D-01  5.88D-01  7.06D-01  7.60D-01
                    CP:  1.01D+00  9.11D-01  1.25D+00  1.03D+00  1.04D+00
                    CP:  9.48D-01  8.36D-01
 E= -1906.27844216456     Delta-E=       -0.000000000066 Rises=F Damp=F
 DIIS: error= 8.40D-08 at cycle  13 NSaved=  13.
 NSaved=13 IEnMin=13 EnMin= -1906.27844216456     IErMin=13 ErrMin= 8.40D-08
 ErrMax= 8.40D-08  0.00D+00 EMaxC= 1.00D-01 BMatC= 8.14D-12 BMatP= 8.07D-11
 IDIUse=1 WtCom= 1.00D+00 WtEn= 0.00D+00
 Coeff-Com: -0.307D-06-0.280D-05-0.322D-05 0.335D-05 0.155D-03 0.729D-03
 Coeff-Com:  0.875D-03-0.471D-02-0.122D-01-0.196D-01 0.481D-01 0.292D+00
 Coeff-Com:  0.695D+00
 Coeff:     -0.307D-06-0.280D-05-0.322D-05 0.335D-05 0.155D-03 0.729D-03
 Coeff:      0.875D-03-0.471D-02-0.122D-01-0.196D-01 0.481D-01 0.292D+00
 Coeff:      0.695D+00
 Gap=     0.362 Goal=   None    Shift=    0.000
 RMSDP=6.60D-09 MaxDP=4.60D-07 DE=-6.64D-11 OVMax= 7.01D-07

 Error on total polarization charges =  0.00626
 SCF Done:  E(RCAM-B3LYP) =  -1906.27844216     A.U. after   13 cycles
            NFock= 13  Conv=0.66D-08     -V/T= 2.0078
 KE= 1.891431826357D+03 PE=-1.187823181649D+04 EE= 4.384994733935D+03
 Leave Link  502 at Sun Mar  3 18:03:53 2024, MaxMem=  5368709120 cpu:       945.4
 (Enter /home/k0335/k033513/app/g09/l601.exe)
 Copying SCF densities to generalized density rwf, IOpCl= 0 IROHF=0.

 **********************************************************************

            Population analysis using the SCF density.

 **********************************************************************

 Alpha  occ. eigenvalues --  -24.84018 -24.83250 -24.83050 -24.82877 -24.82684
 Alpha  occ. eigenvalues --  -24.82595 -24.82513 -24.82452 -24.81856 -19.32665
 Alpha  occ. eigenvalues --  -19.23087 -19.22867 -19.22585 -14.52264 -14.49420
 Alpha  occ. eigenvalues --  -14.49377 -10.59125 -10.55149 -10.53147 -10.48720
 Alpha  occ. eigenvalues --  -10.44901 -10.44827 -10.43763 -10.30938 -10.30884
 Alpha  occ. eigenvalues --  -10.26202 -10.25942 -10.25527 -10.25028 -10.24479
 Alpha  occ. eigenvalues --   -1.42649  -1.41678  -1.38507  -1.35279  -1.33039
 Alpha  occ. eigenvalues --   -1.32932  -1.32616  -1.31838  -1.31030  -1.21656
 Alpha  occ. eigenvalues --   -1.20044  -1.16620  -1.16292  -1.08639  -1.06364
 Alpha  occ. eigenvalues --   -1.04826  -0.93299  -0.89222  -0.87900  -0.84811
 Alpha  occ. eigenvalues --   -0.82711  -0.80758  -0.80534  -0.78438  -0.76903
 Alpha  occ. eigenvalues --   -0.75036  -0.73513  -0.72476  -0.71845  -0.71255
 Alpha  occ. eigenvalues --   -0.70163  -0.69096  -0.68465  -0.68013  -0.67520
 Alpha  occ. eigenvalues --   -0.67251  -0.66330  -0.65400  -0.64040  -0.61388
 Alpha  occ. eigenvalues --   -0.59852  -0.58877  -0.56947  -0.56571  -0.56305
 Alpha  occ. eigenvalues --   -0.56055  -0.55700  -0.55318  -0.55120  -0.54634
 Alpha  occ. eigenvalues --   -0.54458  -0.54158  -0.53652  -0.53606  -0.52906
 Alpha  occ. eigenvalues --   -0.52670  -0.52585  -0.51975  -0.51849  -0.51517
 Alpha  occ. eigenvalues --   -0.51155  -0.50565  -0.50245  -0.49937  -0.49410
 Alpha  occ. eigenvalues --   -0.48919  -0.48682  -0.48634  -0.48198  -0.47894
 Alpha  occ. eigenvalues --   -0.45891  -0.45500  -0.45300  -0.44339  -0.43681
 Alpha  occ. eigenvalues --   -0.42329  -0.41883  -0.41566  -0.40334  -0.39991
 Alpha  occ. eigenvalues --   -0.39261  -0.38826  -0.38401  -0.37664  -0.35590
 Alpha  occ. eigenvalues --   -0.34949  -0.34501
 Alpha virt. eigenvalues --    0.01737   0.02510   0.06464   0.07958   0.11799
 Alpha virt. eigenvalues --    0.13510   0.14500   0.15633   0.16248   0.16557
 Alpha virt. eigenvalues --    0.17312   0.18092   0.18330   0.18842   0.19823
 Alpha virt. eigenvalues --    0.20097   0.20669   0.21325   0.21591   0.22584
 Alpha virt. eigenvalues --    0.22857   0.23073   0.23211   0.23631   0.23704
 Alpha virt. eigenvalues --    0.24390   0.24574   0.24709   0.25195   0.25363
 Alpha virt. eigenvalues --    0.26003   0.26190   0.27197   0.28156   0.28252
 Alpha virt. eigenvalues --    0.28818   0.29214   0.29653   0.30335   0.31355
 Alpha virt. eigenvalues --    0.31796   0.32283   0.33452   0.37332   0.38553
 Alpha virt. eigenvalues --    0.39783   0.40743   0.41146   0.47191   0.48775
 Alpha virt. eigenvalues --    0.50881   0.51477   0.52033   0.53192   0.53999
 Alpha virt. eigenvalues --    0.54502   0.54904   0.55478   0.55961   0.56825
 Alpha virt. eigenvalues --    0.57253   0.57574   0.58714   0.59835   0.60145
 Alpha virt. eigenvalues --    0.60432   0.60705   0.60854   0.61941   0.62886
 Alpha virt. eigenvalues --    0.63836   0.64645   0.65381   0.67281   0.67882
 Alpha virt. eigenvalues --    0.68270   0.68709   0.70210   0.71711   0.72432
 Alpha virt. eigenvalues --    0.73142   0.73807   0.75343   0.76527   0.77293
 Alpha virt. eigenvalues --    0.79078   0.79567   0.81890   0.83373   0.83659
 Alpha virt. eigenvalues --    0.84182   0.85192   0.85828   0.86848   0.87276
 Alpha virt. eigenvalues --    0.88098   0.89386   0.89765   0.91437   0.92245
 Alpha virt. eigenvalues --    0.92472   0.92911   0.93390   0.94488   0.94558
 Alpha virt. eigenvalues --    0.95424   0.95782   0.96324   0.96712   0.96964
 Alpha virt. eigenvalues --    0.97710   0.98635   0.99190   1.00595   1.00856
 Alpha virt. eigenvalues --    1.01742   1.02431   1.02752   1.03722   1.04040
 Alpha virt. eigenvalues --    1.05177   1.06585   1.07283   1.08549   1.09194
 Alpha virt. eigenvalues --    1.10971   1.11664   1.12185   1.12787   1.14340
 Alpha virt. eigenvalues --    1.14650   1.16396   1.17013   1.17259   1.18950
 Alpha virt. eigenvalues --    1.20104   1.20716   1.21655   1.22458   1.23317
 Alpha virt. eigenvalues --    1.23951   1.24515   1.25594   1.26282   1.27067
 Alpha virt. eigenvalues --    1.29589   1.31061   1.31376   1.32334   1.33817
 Alpha virt. eigenvalues --    1.34061   1.34124   1.34713   1.36806   1.37527
 Alpha virt. eigenvalues --    1.38331   1.39734   1.40450   1.41037   1.41208
 Alpha virt. eigenvalues --    1.42070   1.42964   1.43466   1.44332   1.44595
 Alpha virt. eigenvalues --    1.45565   1.46457   1.47673   1.48462   1.49561
 Alpha virt. eigenvalues --    1.49862   1.51571   1.52031   1.52966   1.54855
 Alpha virt. eigenvalues --    1.55152   1.55964   1.57127   1.57364   1.58859
 Alpha virt. eigenvalues --    1.59904   1.60963   1.61310   1.62186   1.64160
 Alpha virt. eigenvalues --    1.64480   1.66067   1.68078   1.68203   1.68995
 Alpha virt. eigenvalues --    1.69560   1.70557   1.72025   1.72819   1.74083
 Alpha virt. eigenvalues --    1.75316   1.75857   1.76282   1.77121   1.78042
 Alpha virt. eigenvalues --    1.78332   1.78941   1.79797   1.81278   1.82395
 Alpha virt. eigenvalues --    1.83351   1.85003   1.85370   1.86586   1.86622
 Alpha virt. eigenvalues --    1.86960   1.87878   1.88021   1.88821   1.89124
 Alpha virt. eigenvalues --    1.89715   1.90323   1.90794   1.90946   1.91606
 Alpha virt. eigenvalues --    1.92063   1.92767   1.93288   1.93845   1.93998
 Alpha virt. eigenvalues --    1.95002   1.95642   1.96126   1.97701   1.97911
 Alpha virt. eigenvalues --    1.98453   1.98889   1.99317   1.99809   2.00304
 Alpha virt. eigenvalues --    2.00468   2.01589   2.02105   2.02253   2.03200
 Alpha virt. eigenvalues --    2.03370   2.03551   2.04230   2.04342   2.05311
 Alpha virt. eigenvalues --    2.05947   2.06836   2.07944   2.08926   2.10135
 Alpha virt. eigenvalues --    2.10680   2.11526   2.12089   2.12539   2.12670
 Alpha virt. eigenvalues --    2.13854   2.14024   2.15201   2.15811   2.16079
 Alpha virt. eigenvalues --    2.17426   2.17825   2.18069   2.18625   2.19822
 Alpha virt. eigenvalues --    2.20141   2.21214   2.21925   2.22854   2.23493
 Alpha virt. eigenvalues --    2.25106   2.25571   2.26795   2.28234   2.28878
 Alpha virt. eigenvalues --    2.30477   2.30610   2.31032   2.31754   2.32982
 Alpha virt. eigenvalues --    2.33488   2.34621   2.35490   2.36020   2.36328
 Alpha virt. eigenvalues --    2.37133   2.38997   2.39605   2.40414   2.40877
 Alpha virt. eigenvalues --    2.41986   2.42892   2.44094   2.45498   2.46751
 Alpha virt. eigenvalues --    2.47160   2.47903   2.49093   2.50476   2.51012
 Alpha virt. eigenvalues --    2.53381   2.54721   2.55287   2.56222   2.57072
 Alpha virt. eigenvalues --    2.58880   2.59910   2.62561   2.62682   2.63484
 Alpha virt. eigenvalues --    2.63831   2.65657   2.67340   2.68076   2.70167
 Alpha virt. eigenvalues --    2.71048   2.73051   2.73369   2.74516   2.74802
 Alpha virt. eigenvalues --    2.76775   2.77961   2.78799   2.79229   2.80495
 Alpha virt. eigenvalues --    2.81425   2.81977   2.83127   2.83357   2.84838
 Alpha virt. eigenvalues --    2.85351   2.86948   2.88018   2.88853   2.90007
 Alpha virt. eigenvalues --    2.90758   2.90905   2.91794   2.92889   2.95621
 Alpha virt. eigenvalues --    2.96293   2.97156   2.97290   2.98218   2.98888
 Alpha virt. eigenvalues --    2.99264   2.99574   3.01053   3.02083   3.03966
 Alpha virt. eigenvalues --    3.04445   3.05613   3.05826   3.07426   3.08516
 Alpha virt. eigenvalues --    3.11147   3.11839   3.15469   3.18037   3.19267
 Alpha virt. eigenvalues --    3.21831   3.24655   3.26342   3.26584   3.29504
 Alpha virt. eigenvalues --    3.31529   3.33575   3.35107   3.37447   3.38074
 Alpha virt. eigenvalues --    3.39900   3.40809   3.41854   3.44324   3.46359
 Alpha virt. eigenvalues --    3.52650   3.54026   3.55803   3.57349   3.58441
 Alpha virt. eigenvalues --    3.62345   3.64353   3.65492   4.02275   4.15225
 Alpha virt. eigenvalues --    4.18852   4.20053   4.26873   4.30075   4.35401
 Alpha virt. eigenvalues --    4.35909   4.39117   4.41871   4.45599   4.50217
 Alpha virt. eigenvalues --    4.51319   4.57130   4.58196   4.59837   4.64474
 Alpha virt. eigenvalues --    4.70624   4.74415   4.78335   4.83129   4.86340
 Alpha virt. eigenvalues --    4.89486   4.99893   5.17214   5.37873   5.54212
 Alpha virt. eigenvalues --    5.87755   6.24279   6.37737
          Condensed to atoms (all electrons):
               1          2          3          4          5          6
     1  C    4.907417   0.371598  -0.045147   0.003780  -0.000106  -0.000003
     2  C    0.371598   4.852856   0.376613  -0.036925   0.003243  -0.000076
     3  C   -0.045147   0.376613   4.936677   0.362023  -0.046486  -0.002573
     4  C    0.003780  -0.036925   0.362023   4.838267   0.237013  -0.023636
     5  N   -0.000106   0.003243  -0.046486   0.237013   7.314816   0.256978
     6  C   -0.000003  -0.000076  -0.002573  -0.023636   0.256978   4.152618
     7  O    0.000001  -0.000035  -0.003296   0.001089  -0.089929   0.590799
     8  N    0.000000   0.000000  -0.000234   0.003285  -0.095926   0.255941
     9  C    0.000000   0.000000   0.000007  -0.000054   0.003331  -0.023601
    10  C    0.000000   0.000000  -0.000005   0.000008  -0.000223  -0.002462
    11  C    0.000000   0.000000   0.000000   0.000000   0.000000  -0.000074
    12  C    0.000000   0.000000   0.000003   0.000037  -0.004780  -0.018930
    13  O    0.000000   0.000000   0.000000   0.000002   0.000138   0.000162
    14  N    0.000000   0.000000  -0.000233   0.003170  -0.093775  -0.001901
    15  C    0.000000   0.000000   0.000005  -0.000016   0.001589   0.000307
    16  F    0.000000   0.000000   0.000000   0.000000  -0.000029   0.000006
    17  F    0.000000   0.000000   0.000000   0.000007   0.000037   0.000004
    18  C    0.000000   0.000000  -0.000001   0.000000  -0.000104   0.000027
    19  F    0.000000   0.000000   0.000000   0.000000   0.000000   0.000001
    20  O    0.000000   0.000000   0.000000   0.000000   0.000000   0.000000
    21  C    0.000000   0.000000   0.000000   0.000000   0.000000   0.000000
    22  F    0.000000   0.000000   0.000000   0.000000   0.000000   0.000000
    23  F    0.000000   0.000000   0.000000   0.000000   0.000000   0.000000
    24  F    0.000000   0.000000   0.000000   0.000000   0.000000   0.000000
    25  C    0.000000   0.000000  -0.000004   0.000002  -0.000141   0.000006
    26  F    0.000000   0.000000   0.000000   0.000000   0.000000   0.000000
    27  F    0.000000   0.000000  -0.000001   0.000000  -0.000004   0.000000
    28  F    0.000000   0.000001  -0.000085  -0.000021  -0.001234   0.000319
    29  C   -0.000004  -0.000033  -0.003524  -0.025824   0.258315  -0.018556
    30  O    0.000001  -0.000048  -0.002988   0.001210  -0.090328   0.000184
    31  H    0.391177  -0.035315  -0.005453   0.000067   0.000001  -0.000002
    32  H    0.384389  -0.029224   0.004417  -0.000150   0.000001   0.000000
    33  H    0.391380  -0.035274  -0.005390   0.000069   0.000001   0.000000
    34  H   -0.037487   0.393594  -0.040757  -0.003905   0.000056  -0.000025
    35  H   -0.037407   0.393821  -0.040541  -0.004090   0.000056   0.000008
    36  H   -0.003368  -0.033394   0.386291  -0.035915  -0.005689  -0.000179
    37  H   -0.003373  -0.033890   0.386261  -0.035930  -0.005561   0.004738
    38  H   -0.000025  -0.001797  -0.037643   0.387041  -0.033100   0.004315
    39  H   -0.000032  -0.001729  -0.037570   0.386900  -0.033141  -0.004535
    40  H    0.000000   0.000000   0.000000   0.000001  -0.000102   0.004288
    41  H    0.000000   0.000000   0.000001  -0.000008   0.000385  -0.004489
    42  H    0.000000   0.000000   0.000000   0.000000   0.000000  -0.000151
    43  H    0.000000   0.000000   0.000002   0.000002  -0.000090   0.004672
    44  H    0.000000   0.000000   0.000000   0.000000   0.000000  -0.000027
    45  H    0.000000   0.000000   0.000000   0.000000   0.000000  -0.000003
    46  H    0.000000   0.000000   0.000000   0.000000   0.000000   0.000011
               7          8          9         10         11         12
     1  C    0.000001   0.000000   0.000000   0.000000   0.000000   0.000000
     2  C   -0.000035   0.000000   0.000000   0.000000   0.000000   0.000000
     3  C   -0.003296  -0.000234   0.000007  -0.000005   0.000000   0.000003
     4  C    0.001089   0.003285  -0.000054   0.000008   0.000000   0.000037
     5  N   -0.089929  -0.095926   0.003331  -0.000223   0.000000  -0.004780
     6  C    0.590799   0.255941  -0.023601  -0.002462  -0.000074  -0.018930
     7  O    8.093407  -0.089943   0.001065  -0.003157  -0.000031   0.000339
     8  N   -0.089943   7.303301   0.242726  -0.047586   0.003555   0.263912
     9  C    0.001065   0.242726   4.826345   0.372100  -0.044328  -0.025557
    10  C   -0.003157  -0.047586   0.372100   4.903178   0.367960  -0.003229
    11  C   -0.000031   0.003555  -0.044328   0.367960   4.896980  -0.000042
    12  C    0.000339   0.263912  -0.025557  -0.003229  -0.000042   4.185032
    13  O   -0.000025  -0.090629   0.000859  -0.002921  -0.000035   0.572399
    14  N    0.000061  -0.093505   0.003051  -0.000219   0.000000   0.203246
    15  C    0.000001   0.001931  -0.000039   0.000008   0.000000  -0.013717
    16  F    0.000000  -0.000012   0.000006   0.000000   0.000000   0.007623
    17  F    0.000000  -0.000021   0.000000   0.000000   0.000000   0.000619
    18  C    0.000000  -0.000284   0.000004  -0.000002   0.000000  -0.002409
    19  F    0.000000   0.000018   0.000003  -0.000002   0.000000   0.007187
    20  O    0.000000   0.000000   0.000000   0.000000   0.000000   0.000139
    21  C    0.000000   0.000000   0.000000   0.000000   0.000000  -0.000048
    22  F    0.000000   0.000000   0.000000   0.000000   0.000000   0.000000
    23  F    0.000000   0.000000   0.000000   0.000000   0.000000   0.000008
    24  F    0.000000   0.000000   0.000000   0.000000   0.000000  -0.000003
    25  C    0.000000   0.000019   0.000000   0.000000   0.000000  -0.000295
    26  F    0.000000   0.000000   0.000000   0.000000   0.000000   0.000006
    27  F    0.000000   0.000000   0.000000   0.000000   0.000000   0.000044
    28  F    0.000000  -0.000241   0.000000   0.000000   0.000000   0.004308
    29  C    0.000377  -0.004133   0.000007  -0.000007   0.000000  -0.008475
    30  O   -0.000024   0.000157   0.000002   0.000000   0.000000   0.000037
    31  H   -0.000001   0.000000   0.000000   0.000000   0.000000   0.000000
    32  H    0.000000   0.000000   0.000000   0.000000   0.000000   0.000000
    33  H    0.000000   0.000000   0.000000   0.000000   0.000000   0.000000
    34  H    0.000016   0.000000   0.000000   0.000000   0.000000   0.000000
    35  H   -0.000002   0.000000   0.000000   0.000000   0.000000   0.000000
    36  H    0.000077   0.000000   0.000000   0.000000   0.000000   0.000007
    37  H    0.004213  -0.000100   0.000002   0.000002   0.000000   0.000002
    38  H    0.000513  -0.000104   0.000001   0.000000   0.000000   0.000003
    39  H    0.008652   0.000383  -0.000007   0.000001   0.000000   0.000004
    40  H    0.000514  -0.033073   0.387047  -0.038520  -0.001132  -0.003728
    41  H    0.008701  -0.033061   0.386816  -0.038386  -0.001077   0.004631
    42  H    0.000066  -0.005438  -0.036551   0.391059  -0.033128   0.004489
    43  H    0.003994  -0.005455  -0.036642   0.390214  -0.033269  -0.000136
    44  H    0.000012   0.000055  -0.005069  -0.036951   0.392395   0.000011
    45  H    0.000000  -0.000120   0.004122  -0.027362   0.387887  -0.000004
    46  H   -0.000002   0.000055  -0.005177  -0.036775   0.392589  -0.000025
              13         14         15         16         17         18
     1  C    0.000000   0.000000   0.000000   0.000000   0.000000   0.000000
     2  C    0.000000   0.000000   0.000000   0.000000   0.000000   0.000000
     3  C    0.000000  -0.000233   0.000005   0.000000   0.000000  -0.000001
     4  C    0.000002   0.003170  -0.000016   0.000000   0.000007   0.000000
     5  N    0.000138  -0.093775   0.001589  -0.000029   0.000037  -0.000104
     6  C    0.000162  -0.001901   0.000307   0.000006   0.000004   0.000027
     7  O   -0.000025   0.000061   0.000001   0.000000   0.000000   0.000000
     8  N   -0.090629  -0.093505   0.001931  -0.000012  -0.000021  -0.000284
     9  C    0.000859   0.003051  -0.000039   0.000006   0.000000   0.000004
    10  C   -0.002921  -0.000219   0.000008   0.000000   0.000000  -0.000002
    11  C   -0.000035   0.000000   0.000000   0.000000   0.000000   0.000000
    12  C    0.572399   0.203246  -0.013717   0.007623   0.000619  -0.002409
    13  O    8.106085  -0.090528   0.016617  -0.007966   0.000012  -0.001148
    14  N   -0.090528   7.585570   0.161249  -0.048566  -0.039269  -0.057256
    15  C    0.016617   0.161249   4.454046   0.251079   0.272389   0.174114
    16  F   -0.007966  -0.048566   0.251079   9.131730  -0.042298  -0.023623
    17  F    0.000012  -0.039269   0.272389  -0.042298   9.094783  -0.031805
    18  C   -0.001148  -0.057256   0.174114  -0.023623  -0.031805   5.003326
    19  F   -0.005478   0.000167  -0.028179   0.000255   0.000297   0.226904
    20  O   -0.000007   0.001709  -0.028225  -0.001811   0.000147   0.149990
    21  C   -0.000041   0.000294  -0.003342   0.012827  -0.000281  -0.001499
    22  F    0.000000   0.000000  -0.000038  -0.000005   0.000000   0.000760
    23  F    0.000000   0.000036   0.016821  -0.008345  -0.000380  -0.009776
    24  F    0.000078  -0.000040  -0.005562  -0.002198   0.000012   0.014938
    25  C   -0.000342  -0.003752  -0.038113   0.001291   0.002136   0.224601
    26  F    0.000000  -0.000014   0.001564  -0.000001  -0.000001  -0.026395
    27  F    0.000000  -0.000727   0.005562   0.000001   0.000357  -0.041905
    28  F   -0.000075  -0.004282  -0.006519   0.000002  -0.000076  -0.026941
    29  C    0.000204   0.195175  -0.007245   0.000373   0.007725  -0.002139
    30  O   -0.000031  -0.089601   0.012758   0.000014  -0.014372  -0.004782
    31  H    0.000000   0.000000   0.000000   0.000000   0.000000   0.000000
    32  H    0.000000   0.000000   0.000000   0.000000   0.000000   0.000000
    33  H    0.000000   0.000000   0.000000   0.000000   0.000000   0.000000
    34  H    0.000000   0.000000   0.000000   0.000000   0.000000   0.000000
    35  H    0.000000   0.000000   0.000000   0.000000   0.000000   0.000000
    36  H    0.000000  -0.000018   0.000000   0.000000   0.000000   0.000004
    37  H    0.000000   0.000005   0.000000   0.000000   0.000000   0.000000
    38  H    0.000000   0.000324  -0.000001   0.000000  -0.000001   0.000000
    39  H    0.000000  -0.000100   0.000000   0.000000   0.000000   0.000000
    40  H    0.007412   0.000336  -0.000002  -0.000002   0.000000   0.000000
    41  H    0.000486  -0.000100   0.000000   0.000000   0.000000   0.000000
    42  H    0.004056  -0.000040  -0.000002   0.000000   0.000000   0.000003
    43  H    0.000073   0.000002   0.000000   0.000000   0.000000   0.000000
    44  H   -0.000002   0.000000   0.000000   0.000000   0.000000   0.000000
    45  H    0.000000   0.000000   0.000000   0.000000   0.000000   0.000000
    46  H    0.000015   0.000000   0.000000   0.000000   0.000000   0.000000
              19         20         21         22         23         24
     1  C    0.000000   0.000000   0.000000   0.000000   0.000000   0.000000
     2  C    0.000000   0.000000   0.000000   0.000000   0.000000   0.000000
     3  C    0.000000   0.000000   0.000000   0.000000   0.000000   0.000000
     4  C    0.000000   0.000000   0.000000   0.000000   0.000000   0.000000
     5  N    0.000000   0.000000   0.000000   0.000000   0.000000   0.000000
     6  C    0.000001   0.000000   0.000000   0.000000   0.000000   0.000000
     7  O    0.000000   0.000000   0.000000   0.000000   0.000000   0.000000
     8  N    0.000018   0.000000   0.000000   0.000000   0.000000   0.000000
     9  C    0.000003   0.000000   0.000000   0.000000   0.000000   0.000000
    10  C   -0.000002   0.000000   0.000000   0.000000   0.000000   0.000000
    11  C    0.000000   0.000000   0.000000   0.000000   0.000000   0.000000
    12  C    0.007187   0.000139  -0.000048   0.000000   0.000008  -0.000003
    13  O   -0.005478  -0.000007  -0.000041   0.000000   0.000000   0.000078
    14  N    0.000167   0.001709   0.000294   0.000000   0.000036  -0.000040
    15  C   -0.028179  -0.028225  -0.003342  -0.000038   0.016821  -0.005562
    16  F    0.000255  -0.001811   0.012827  -0.000005  -0.008345  -0.002198
    17  F    0.000297   0.000147  -0.000281   0.000000  -0.000380   0.000012
    18  C    0.226904   0.149990  -0.001499   0.000760  -0.009776   0.014938
    19  F    9.117246  -0.050177   0.000408  -0.000025  -0.000019  -0.002845
    20  O   -0.050177   8.361574   0.234457  -0.039610  -0.047230  -0.044871
    21  C    0.000408   0.234457   3.819345   0.337400   0.303555   0.296787
    22  F   -0.000025  -0.039610   0.337400   9.018871  -0.038050  -0.036659
    23  F   -0.000019  -0.047230   0.303555  -0.038050   9.062545  -0.033554
    24  F   -0.002845  -0.044871   0.296787  -0.036659  -0.033554   9.054402
    25  C   -0.010031  -0.019890   0.001076  -0.000046  -0.000129   0.000255
    26  F   -0.000853   0.000215   0.000005   0.000000   0.000000   0.000000
    27  F    0.000308   0.000751  -0.000031   0.000000   0.000001   0.000000
    28  F   -0.000697   0.000614   0.000005   0.000000   0.000000   0.000000
    29  C   -0.000139   0.000032   0.000002   0.000000   0.000003  -0.000001
    30  O    0.000004   0.000006   0.000000   0.000000   0.000000   0.000000
    31  H    0.000000   0.000000   0.000000   0.000000   0.000000   0.000000
    32  H    0.000000   0.000000   0.000000   0.000000   0.000000   0.000000
    33  H    0.000000   0.000000   0.000000   0.000000   0.000000   0.000000
    34  H    0.000000   0.000000   0.000000   0.000000   0.000000   0.000000
    35  H    0.000000   0.000000   0.000000   0.000000   0.000000   0.000000
    36  H    0.000000   0.000000   0.000000   0.000000   0.000000   0.000000
    37  H    0.000000   0.000000   0.000000   0.000000   0.000000   0.000000
    38  H    0.000000   0.000000   0.000000   0.000000   0.000000   0.000000
    39  H    0.000000   0.000000   0.000000   0.000000   0.000000   0.000000
    40  H    0.000001   0.000000   0.000000   0.000000   0.000000   0.000000
    41  H    0.000000   0.000000   0.000000   0.000000   0.000000   0.000000
    42  H    0.000006   0.000000   0.000000   0.000000   0.000000   0.000000
    43  H    0.000000   0.000000   0.000000   0.000000   0.000000   0.000000
    44  H    0.000000   0.000000   0.000000   0.000000   0.000000   0.000000
    45  H    0.000000   0.000000   0.000000   0.000000   0.000000   0.000000
    46  H    0.000000   0.000000   0.000000   0.000000   0.000000   0.000000
              25         26         27         28         29         30
     1  C    0.000000   0.000000   0.000000   0.000000  -0.000004   0.000001
     2  C    0.000000   0.000000   0.000000   0.000001  -0.000033  -0.000048
     3  C   -0.000004   0.000000  -0.000001  -0.000085  -0.003524  -0.002988
     4  C    0.000002   0.000000   0.000000  -0.000021  -0.025824   0.001210
     5  N   -0.000141   0.000000  -0.000004  -0.001234   0.258315  -0.090328
     6  C    0.000006   0.000000   0.000000   0.000319  -0.018556   0.000184
     7  O    0.000000   0.000000   0.000000   0.000000   0.000377  -0.000024
     8  N    0.000019   0.000000   0.000000  -0.000241  -0.004133   0.000157
     9  C    0.000000   0.000000   0.000000   0.000000   0.000007   0.000002
    10  C    0.000000   0.000000   0.000000   0.000000  -0.000007   0.000000
    11  C    0.000000   0.000000   0.000000   0.000000   0.000000   0.000000
    12  C   -0.000295   0.000006   0.000044   0.004308  -0.008475   0.000037
    13  O   -0.000342   0.000000   0.000000  -0.000075   0.000204  -0.000031
    14  N   -0.003752  -0.000014  -0.000727  -0.004282   0.195175  -0.089601
    15  C   -0.038113   0.001564   0.005562  -0.006519  -0.007245   0.012758
    16  F    0.001291  -0.000001   0.000001   0.000002   0.000373   0.000014
    17  F    0.002136  -0.000001   0.000357  -0.000076   0.007725  -0.014372
    18  C    0.224601  -0.026395  -0.041905  -0.026941  -0.002139  -0.004782
    19  F   -0.010031  -0.000853   0.000308  -0.000697  -0.000139   0.000004
    20  O   -0.019890   0.000215   0.000751   0.000614   0.000032   0.000006
    21  C    0.001076   0.000005  -0.000031   0.000005   0.000002   0.000000
    22  F   -0.000046   0.000000   0.000000   0.000000   0.000000   0.000000
    23  F   -0.000129   0.000000   0.000001   0.000000   0.000003   0.000000
    24  F    0.000255   0.000000   0.000000   0.000000  -0.000001   0.000000
    25  C    4.171990   0.296852   0.284924   0.271593   0.002665   0.007697
    26  F    0.296852   9.062949  -0.039897  -0.039331   0.000006  -0.000001
    27  F    0.284924  -0.039897   9.062456  -0.035354  -0.000047  -0.001142
    28  F    0.271593  -0.039331  -0.035354   9.079847   0.014651  -0.003962
    29  C    0.002665   0.000006  -0.000047   0.014651   4.198905   0.562030
    30  O    0.007697  -0.000001  -0.001142  -0.003962   0.562030   8.124507
    31  H    0.000000   0.000000   0.000000   0.000000   0.000000   0.000000
    32  H    0.000000   0.000000   0.000000   0.000000   0.000000   0.000000
    33  H    0.000000   0.000000   0.000000   0.000000  -0.000002  -0.000002
    34  H    0.000000   0.000000   0.000000   0.000000   0.000008  -0.000002
    35  H    0.000000   0.000000   0.000000   0.000000  -0.000024   0.000022
    36  H    0.000058   0.000000   0.000002   0.000648   0.004722   0.004405
    37  H    0.000000   0.000000   0.000000  -0.000003  -0.000093   0.000094
    38  H   -0.000001   0.000000   0.000000   0.000001  -0.003553   0.007095
    39  H    0.000000   0.000000   0.000000   0.000000   0.004568   0.000478
    40  H    0.000000   0.000000   0.000000   0.000000   0.000002   0.000000
    41  H    0.000000   0.000000   0.000000   0.000000   0.000005   0.000000
    42  H    0.000001   0.000000   0.000000   0.000004   0.000006   0.000000
    43  H    0.000000   0.000000   0.000000   0.000000   0.000004   0.000000
    44  H    0.000000   0.000000   0.000000   0.000000   0.000000   0.000000
    45  H    0.000000   0.000000   0.000000   0.000000   0.000000   0.000000
    46  H    0.000000   0.000000   0.000000   0.000000   0.000000   0.000000
              31         32         33         34         35         36
     1  C    0.391177   0.384389   0.391380  -0.037487  -0.037407  -0.003368
     2  C   -0.035315  -0.029224  -0.035274   0.393594   0.393821  -0.033394
     3  C   -0.005453   0.004417  -0.005390  -0.040757  -0.040541   0.386291
     4  C    0.000067  -0.000150   0.000069  -0.003905  -0.004090  -0.035915
     5  N    0.000001   0.000001   0.000001   0.000056   0.000056  -0.005689
     6  C   -0.000002   0.000000   0.000000  -0.000025   0.000008  -0.000179
     7  O   -0.000001   0.000000   0.000000   0.000016  -0.000002   0.000077
     8  N    0.000000   0.000000   0.000000   0.000000   0.000000   0.000000
     9  C    0.000000   0.000000   0.000000   0.000000   0.000000   0.000000
    10  C    0.000000   0.000000   0.000000   0.000000   0.000000   0.000000
    11  C    0.000000   0.000000   0.000000   0.000000   0.000000   0.000000
    12  C    0.000000   0.000000   0.000000   0.000000   0.000000   0.000007
    13  O    0.000000   0.000000   0.000000   0.000000   0.000000   0.000000
    14  N    0.000000   0.000000   0.000000   0.000000   0.000000  -0.000018
    15  C    0.000000   0.000000   0.000000   0.000000   0.000000   0.000000
    16  F    0.000000   0.000000   0.000000   0.000000   0.000000   0.000000
    17  F    0.000000   0.000000   0.000000   0.000000   0.000000   0.000000
    18  C    0.000000   0.000000   0.000000   0.000000   0.000000   0.000004
    19  F    0.000000   0.000000   0.000000   0.000000   0.000000   0.000000
    20  O    0.000000   0.000000   0.000000   0.000000   0.000000   0.000000
    21  C    0.000000   0.000000   0.000000   0.000000   0.000000   0.000000
    22  F    0.000000   0.000000   0.000000   0.000000   0.000000   0.000000
    23  F    0.000000   0.000000   0.000000   0.000000   0.000000   0.000000
    24  F    0.000000   0.000000   0.000000   0.000000   0.000000   0.000000
    25  C    0.000000   0.000000   0.000000   0.000000   0.000000   0.000058
    26  F    0.000000   0.000000   0.000000   0.000000   0.000000   0.000000
    27  F    0.000000   0.000000   0.000000   0.000000   0.000000   0.000002
    28  F    0.000000   0.000000   0.000000   0.000000   0.000000   0.000648
    29  C    0.000000   0.000000  -0.000002   0.000008  -0.000024   0.004722
    30  O    0.000000   0.000000  -0.000002  -0.000002   0.000022   0.004405
    31  H    0.598995  -0.029821  -0.031630  -0.004959   0.005237  -0.000453
    32  H   -0.029821   0.601210  -0.029757  -0.003238  -0.003238  -0.000003
    33  H   -0.031630  -0.029757   0.597778   0.005238  -0.004954   0.004418
    34  H   -0.004959  -0.003238   0.005238   0.621533  -0.037477   0.005323
    35  H    0.005237  -0.003238  -0.004954  -0.037477   0.620312  -0.005432
    36  H   -0.000453  -0.000003   0.004418   0.005323  -0.005432   0.601371
    37  H    0.004453  -0.000006  -0.000451  -0.005453   0.005346  -0.037323
    38  H    0.000005   0.000003   0.000001  -0.000454   0.004201  -0.005588
    39  H    0.000001   0.000003   0.000005   0.004186  -0.000449   0.004832
    40  H    0.000000   0.000000   0.000000   0.000000   0.000000   0.000000
    41  H    0.000000   0.000000   0.000000   0.000000   0.000000   0.000000
    42  H    0.000000   0.000000   0.000000   0.000000   0.000000   0.000000
    43  H    0.000000   0.000000   0.000000   0.000000   0.000000   0.000000
    44  H    0.000000   0.000000   0.000000   0.000000   0.000000   0.000000
    45  H    0.000000   0.000000   0.000000   0.000000   0.000000   0.000000
    46  H    0.000000   0.000000   0.000000   0.000000   0.000000   0.000000
              37         38         39         40         41         42
     1  C   -0.003373  -0.000025  -0.000032   0.000000   0.000000   0.000000
     2  C   -0.033890  -0.001797  -0.001729   0.000000   0.000000   0.000000
     3  C    0.386261  -0.037643  -0.037570   0.000000   0.000001   0.000000
     4  C   -0.035930   0.387041   0.386900   0.000001  -0.000008   0.000000
     5  N   -0.005561  -0.033100  -0.033141  -0.000102   0.000385   0.000000
     6  C    0.004738   0.004315  -0.004535   0.004288  -0.004489  -0.000151
     7  O    0.004213   0.000513   0.008652   0.000514   0.008701   0.000066
     8  N   -0.000100  -0.000104   0.000383  -0.033073  -0.033061  -0.005438
     9  C    0.000002   0.000001  -0.000007   0.387047   0.386816  -0.036551
    10  C    0.000002   0.000000   0.000001  -0.038520  -0.038386   0.391059
    11  C    0.000000   0.000000   0.000000  -0.001132  -0.001077  -0.033128
    12  C    0.000002   0.000003   0.000004  -0.003728   0.004631   0.004489
    13  O    0.000000   0.000000   0.000000   0.007412   0.000486   0.004056
    14  N    0.000005   0.000324  -0.000100   0.000336  -0.000100  -0.000040
    15  C    0.000000  -0.000001   0.000000  -0.000002   0.000000  -0.000002
    16  F    0.000000   0.000000   0.000000  -0.000002   0.000000   0.000000
    17  F    0.000000  -0.000001   0.000000   0.000000   0.000000   0.000000
    18  C    0.000000   0.000000   0.000000   0.000000   0.000000   0.000003
    19  F    0.000000   0.000000   0.000000   0.000001   0.000000   0.000006
    20  O    0.000000   0.000000   0.000000   0.000000   0.000000   0.000000
    21  C    0.000000   0.000000   0.000000   0.000000   0.000000   0.000000
    22  F    0.000000   0.000000   0.000000   0.000000   0.000000   0.000000
    23  F    0.000000   0.000000   0.000000   0.000000   0.000000   0.000000
    24  F    0.000000   0.000000   0.000000   0.000000   0.000000   0.000000
    25  C    0.000000  -0.000001   0.000000   0.000000   0.000000   0.000001
    26  F    0.000000   0.000000   0.000000   0.000000   0.000000   0.000000
    27  F    0.000000   0.000000   0.000000   0.000000   0.000000   0.000000
    28  F   -0.000003   0.000001   0.000000   0.000000   0.000000   0.000004
    29  C   -0.000093  -0.003553   0.004568   0.000002   0.000005   0.000006
    30  O    0.000094   0.007095   0.000478   0.000000   0.000000   0.000000
    31  H    0.004453   0.000005   0.000001   0.000000   0.000000   0.000000
    32  H   -0.000006   0.000003   0.000003   0.000000   0.000000   0.000000
    33  H   -0.000451   0.000001   0.000005   0.000000   0.000000   0.000000
    34  H   -0.005453  -0.000454   0.004186   0.000000   0.000000   0.000000
    35  H    0.005346   0.004201  -0.000449   0.000000   0.000000   0.000000
    36  H   -0.037323  -0.005588   0.004832   0.000000   0.000000   0.000000
    37  H    0.605037   0.004923  -0.005629   0.000000  -0.000001   0.000000
    38  H    0.004923   0.557043  -0.029995   0.000000   0.000000   0.000000
    39  H   -0.005629  -0.029995   0.554987   0.000000   0.000001   0.000000
    40  H    0.000000   0.000000   0.000000   0.556712  -0.030077  -0.005637
    41  H   -0.000001   0.000000   0.000001  -0.030077   0.554813   0.004873
    42  H    0.000000   0.000000   0.000000  -0.005637   0.004873   0.597508
    43  H    0.000051   0.000000  -0.000001   0.004936  -0.005667  -0.036304
    44  H    0.000000   0.000000   0.000000  -0.000440   0.004234   0.004965
    45  H    0.000000   0.000000   0.000000  -0.000092  -0.000098  -0.003464
    46  H    0.000000   0.000000   0.000000   0.004226  -0.000440  -0.004806
              43         44         45         46
     1  C    0.000000   0.000000   0.000000   0.000000
     2  C    0.000000   0.000000   0.000000   0.000000
     3  C    0.000002   0.000000   0.000000   0.000000
     4  C    0.000002   0.000000   0.000000   0.000000
     5  N   -0.000090   0.000000   0.000000   0.000000
     6  C    0.004672  -0.000027  -0.000003   0.000011
     7  O    0.003994   0.000012   0.000000  -0.000002
     8  N   -0.005455   0.000055  -0.000120   0.000055
     9  C   -0.036642  -0.005069   0.004122  -0.005177
    10  C    0.390214  -0.036951  -0.027362  -0.036775
    11  C   -0.033269   0.392395   0.387887   0.392589
    12  C   -0.000136   0.000011  -0.000004  -0.000025
    13  O    0.000073  -0.000002   0.000000   0.000015
    14  N    0.000002   0.000000   0.000000   0.000000
    15  C    0.000000   0.000000   0.000000   0.000000
    16  F    0.000000   0.000000   0.000000   0.000000
    17  F    0.000000   0.000000   0.000000   0.000000
    18  C    0.000000   0.000000   0.000000   0.000000
    19  F    0.000000   0.000000   0.000000   0.000000
    20  O    0.000000   0.000000   0.000000   0.000000
    21  C    0.000000   0.000000   0.000000   0.000000
    22  F    0.000000   0.000000   0.000000   0.000000
    23  F    0.000000   0.000000   0.000000   0.000000
    24  F    0.000000   0.000000   0.000000   0.000000
    25  C    0.000000   0.000000   0.000000   0.000000
    26  F    0.000000   0.000000   0.000000   0.000000
    27  F    0.000000   0.000000   0.000000   0.000000
    28  F    0.000000   0.000000   0.000000   0.000000
    29  C    0.000004   0.000000   0.000000   0.000000
    30  O    0.000000   0.000000   0.000000   0.000000
    31  H    0.000000   0.000000   0.000000   0.000000
    32  H    0.000000   0.000000   0.000000   0.000000
    33  H    0.000000   0.000000   0.000000   0.000000
    34  H    0.000000   0.000000   0.000000   0.000000
    35  H    0.000000   0.000000   0.000000   0.000000
    36  H    0.000000   0.000000   0.000000   0.000000
    37  H    0.000051   0.000000   0.000000   0.000000
    38  H    0.000000   0.000000   0.000000   0.000000
    39  H   -0.000001   0.000000   0.000000   0.000000
    40  H    0.004936  -0.000440  -0.000092   0.004226
    41  H   -0.005667   0.004234  -0.000098  -0.000440
    42  H   -0.036304   0.004965  -0.003464  -0.004806
    43  H    0.600264  -0.004819  -0.003465   0.004971
    44  H   -0.004819   0.592846  -0.028823  -0.031750
    45  H   -0.003465  -0.028823   0.585237  -0.028756
    46  H    0.004971  -0.031750  -0.028756   0.591796
 Mulliken charges:
               1
     1  C   -0.322788
     2  C   -0.183983
     3  C   -0.180369
     4  C   -0.057500
     5  N   -0.575210
     6  C    0.825838
     7  O   -0.527451
     8  N   -0.575475
     9  C   -0.050468
    10  C   -0.186722
    11  C   -0.328249
    12  C    0.827292
    13  O   -0.509370
    14  N   -0.630467
    15  C    0.760958
    16  F   -0.270353
    17  F   -0.250022
    18  C    0.435395
    19  F   -0.254362
    20  O   -0.517813
    21  C    0.999081
    22  F   -0.242597
    23  F   -0.245485
    24  F   -0.240740
    25  C    0.807578
    26  F   -0.255103
    27  F   -0.235300
    28  F   -0.253172
    29  C    0.824009
    30  O   -0.513419
    31  H    0.107697
    32  H    0.105415
    33  H    0.108569
    34  H    0.103802
    35  H    0.104613
    36  H    0.115204
    37  H    0.112682
    38  H    0.146792
    39  H    0.148187
    40  H    0.147328
    41  H    0.148457
    42  H    0.118484
    43  H    0.116665
    44  H    0.113361
    45  H    0.114940
    46  H    0.114071
 Sum of Mulliken charges =   0.00000
 Mulliken charges with hydrogens summed into heavy atoms:
               1
     1  C   -0.001107
     2  C    0.024433
     3  C    0.047517
     4  C    0.237478
     5  N   -0.575210
     6  C    0.825838
     7  O   -0.527451
     8  N   -0.575475
     9  C    0.245317
    10  C    0.048427
    11  C    0.014123
    12  C    0.827292
    13  O   -0.509370
    14  N   -0.630467
    15  C    0.760958
    16  F   -0.270353
    17  F   -0.250022
    18  C    0.435395
    19  F   -0.254362
    20  O   -0.517813
    21  C    0.999081
    22  F   -0.242597
    23  F   -0.245485
    24  F   -0.240740
    25  C    0.807578
    26  F   -0.255103
    27  F   -0.235300
    28  F   -0.253172
    29  C    0.824009
    30  O   -0.513419
 Electronic spatial extent (au):  <R**2>=          13343.7376
 Charge=              0.0000 electrons
 Dipole moment (field-independent basis, Debye):
    X=             -2.7602    Y=              1.8217    Z=              0.2878  Tot=              3.3197
 Quadrupole moment (field-independent basis, Debye-Ang):
   XX=           -176.3810   YY=           -169.6541   ZZ=           -164.9475
   XY=              6.1154   XZ=             -0.6770   YZ=              0.2477
 Traceless Quadrupole moment (field-independent basis, Debye-Ang):
   XX=             -6.0535   YY=              0.6734   ZZ=              5.3800
   XY=              6.1154   XZ=             -0.6770   YZ=              0.2477
 Octapole moment (field-independent basis, Debye-Ang**2):
  XXX=           -504.7813  YYY=            219.7429  ZZZ=            -84.4709  XYY=           -161.1637
  XXY=             29.2052  XXZ=            -26.9668  XZZ=           -161.4514  YZZ=             66.5884
  YYZ=            -38.7296  XYZ=              7.4870
 Hexadecapole moment (field-independent basis, Debye-Ang**3):
 XXXX=          -9356.3718 YYYY=          -4514.9377 ZZZZ=          -1346.3222 XXXY=            664.5520
 XXXZ=           -186.0671 YYYX=            624.3746 YYYZ=            144.9220 ZZZX=           -185.4690
 ZZZY=            124.4844 XXYY=          -2370.8226 XXZZ=          -1784.7294 YYZZ=           -993.8353
 XXYZ=             15.2701 YYXZ=            -47.6200 ZZXY=            208.5904
 N-N= 3.695526814033D+03 E-N=-1.187823180785D+04  KE= 1.891431826357D+03
 No NMR shielding tensors so no spin-rotation constants.
 Leave Link  601 at Sun Mar  3 18:03:54 2024, MaxMem=  5368709120 cpu:         3.5
 (Enter /home/k0335/k033513/app/g09/l9999.exe)
 1\1\GINC-C24U18N4\SP\RCAM-B3LYP\6-31G(d,p)\C14H16F9N3O4\K033513\03-Mar
 -2024\0\\#p CAM-B3LYP/6-31G(d,p) SCRF=(PCM,Solvent=Generic,Read) NoSym
 m out=wfn\\Title A891690742_0\\0,1\C,0,-4.886992,-2.450705,-1.070295\C
 ,0,-4.298865,-1.99227,0.254574\C,0,-2.967383,-1.269951,0.055679\C,0,-2
 .378988,-0.810218,1.393585\N,0,-1.100212,-0.121367,1.215727\C,0,-1.126
 029,1.227057,0.925479\O,0,-2.180086,1.860614,0.853196\N,0,0.099062,1.8
 13668,0.683505\C,0,0.12153,3.22564,0.299302\C,0,-0.065075,3.404656,-1.
 209552\C,0,-0.038196,4.872497,-1.602499\C,0,1.281461,1.106867,0.644371
 \O,0,2.322305,1.617168,0.233703\N,0,1.232345,-0.201427,1.050745\C,0,2.
 479645,-0.948709,1.041985\F,0,3.387643,-0.187769,1.731401\F,0,2.373888
 ,-2.060962,1.829213\C,0,3.113155,-1.368606,-0.320483\F,0,3.414936,-0.2
 82077,-1.089077\O,0,4.321548,-2.146082,-0.241437\C,0,5.337983,-1.53532
 2,0.507266\F,0,6.516593,-2.07488,0.140566\F,0,5.141728,-1.793706,1.811
 189\F,0,5.387356,-0.211957,0.297408\C,0,2.097838,-2.203863,-1.091908\F
 ,0,2.595062,-2.578313,-2.299972\F,0,1.760463,-3.339998,-0.44808\F,0,0.
 96303,-1.511071,-1.351052\C,0,0.049226,-0.880221,1.172659\O,0,0.00751,
 -2.109344,1.193815\H,0,-5.07147,-1.599295,-1.733176\H,0,-5.838903,-2.9
 64868,-0.90478\H,0,-4.210733,-3.143804,-1.580821\H,0,-5.012626,-1.3267
 04,0.753786\H,0,-4.156596,-2.862924,0.905246\H,0,-2.259057,-1.935211,-
 0.453224\H,0,-3.11158,-0.405112,-0.603497\H,0,-2.233198,-1.673906,2.05
 3488\H,0,-3.082892,-0.138477,1.899288\H,0,1.074104,3.669582,0.61262\H,
 0,-0.67001,3.759423,0.838778\H,0,0.723781,2.870767,-1.752315\H,0,-1.01
 7526,2.963339,-1.525811\H,0,-0.840053,5.42657,-1.104188\H,0,-0.173265,
 4.978135,-2.683457\H,0,0.917545,5.333136,-1.332949\\Version=ES64L-G09R
 evD.01\HF=-1906.2784422\RMSD=6.600e-09\Dipole=-1.08594,0.7167313,0.113
 2235\Quadrupole=-4.5006049,0.5006749,3.99993,4.5466419,-0.5033484,0.18
 41625\PG=C01 [X(C14H16F9N3O4)]\\@

 Writing a WFN file to "A891690742/A891690742_0.wfn"


 ABOVE ALL I AM AN OPTIMIST FOR NUMBER THEORY,
 AND I HOLD THE HOPE THAT WE MAY NOT BE FAR FROM
 A TIME WHEN IRREFUTABLE ARITHMETIC WILL CELEBRATE
 ITS TRIUMPHS IN PHYSICS AND CHEMISTRY.
   -- HERMANN MINKOWSKI, 1905
 Job cpu time:       0 days  0 hours 16 minutes 17.1 seconds.
 File lengths (MBytes):  RWF=    348 Int=      0 D2E=      0 Chk=     12 Scr=      1
 Normal termination of Gaussian 09 at Sun Mar  3 18:03:54 2024.
