 Entering Gaussian System, Link 0=g09
 Initial command:
 /home/k0335/k033513/app/g09/l1.exe "/home/k0335/k033513/app/g09/scratch/Gau-553946.inp" -scrdir="/home/k0335/k033513/app/g09/scratch/"
 Default is to use a total of  36 processors:
                               36 via shared-memory
                                1 via Linda
 Entering Link 1 = /home/k0335/k033513/app/g09/l1.exe PID=    553947.
  
 Copyright (c) 1988,1990,1992,1993,1995,1998,2003,2009,2013,
            Gaussian, Inc.  All Rights Reserved.
  
 This is part of the Gaussian(R) 09 program.  It is based on
 the Gaussian(R) 03 system (copyright 2003, Gaussian, Inc.),
 the Gaussian(R) 98 system (copyright 1998, Gaussian, Inc.),
 the Gaussian(R) 94 system (copyright 1995, Gaussian, Inc.),
 the Gaussian 92(TM) system (copyright 1992, Gaussian, Inc.),
 the Gaussian 90(TM) system (copyright 1990, Gaussian, Inc.),
 the Gaussian 88(TM) system (copyright 1988, Gaussian, Inc.),
 the Gaussian 86(TM) system (copyright 1986, Carnegie Mellon
 University), and the Gaussian 82(TM) system (copyright 1983,
 Carnegie Mellon University). Gaussian is a federally registered
 trademark of Gaussian, Inc.
  
 This software contains proprietary and confidential information,
 including trade secrets, belonging to Gaussian, Inc.
  
 This software is provided under written license and may be
 used, copied, transmitted, or stored only in accord with that
 written license.
  
 The following legend is applicable only to US Government
 contracts under FAR:
  
                    RESTRICTED RIGHTS LEGEND
  
 Use, reproduction and disclosure by the US Government is
 subject to restrictions as set forth in subparagraphs (a)
 and (c) of the Commercial Computer Software - Restricted
 Rights clause in FAR 52.227-19.
  
 Gaussian, Inc.
 340 Quinnipiac St., Bldg. 40, Wallingford CT 06492
  
  
 ---------------------------------------------------------------
 Warning -- This program may not be used in any manner that
 competes with the business of Gaussian, Inc. or will provide
 assistance to any competitor of Gaussian, Inc.  The licensee
 of this program is prohibited from giving any competitor of
 Gaussian, Inc. access to this program.  By using this program,
 the user acknowledges that Gaussian, Inc. is engaged in the
 business of creating and licensing software in the field of
 computational chemistry and represents and warrants to the
 licensee that it is not a competitor of Gaussian, Inc. and that
 it will not use this program in any manner prohibited above.
 ---------------------------------------------------------------
  

 Cite this work as:
 Gaussian 09, Revision D.01,
 M. J. Frisch, G. W. Trucks, H. B. Schlegel, G. E. Scuseria, 
 M. A. Robb, J. R. Cheeseman, G. Scalmani, V. Barone, B. Mennucci, 
 G. A. Petersson, H. Nakatsuji, M. Caricato, X. Li, H. P. Hratchian, 
 A. F. Izmaylov, J. Bloino, G. Zheng, J. L. Sonnenberg, M. Hada, 
 M. Ehara, K. Toyota, R. Fukuda, J. Hasegawa, M. Ishida, T. Nakajima, 
 Y. Honda, O. Kitao, H. Nakai, T. Vreven, J. A. Montgomery, Jr., 
 J. E. Peralta, F. Ogliaro, M. Bearpark, J. J. Heyd, E. Brothers, 
 K. N. Kudin, V. N. Staroverov, T. Keith, R. Kobayashi, J. Normand, 
 K. Raghavachari, A. Rendell, J. C. Burant, S. S. Iyengar, J. Tomasi, 
 M. Cossi, N. Rega, J. M. Millam, M. Klene, J. E. Knox, J. B. Cross, 
 V. Bakken, C. Adamo, J. Jaramillo, R. Gomperts, R. E. Stratmann, 
 O. Yazyev, A. J. Austin, R. Cammi, C. Pomelli, J. W. Ochterski, 
 R. L. Martin, K. Morokuma, V. G. Zakrzewski, G. A. Voth, 
 P. Salvador, J. J. Dannenberg, S. Dapprich, A. D. Daniels, 
 O. Farkas, J. B. Foresman, J. V. Ortiz, J. Cioslowski, 
 and D. J. Fox, Gaussian, Inc., Wallingford CT, 2013.
 
 ******************************************
 Gaussian 09:  ES64L-G09RevD.01 24-Apr-2013
                 3-Mar-2024 
 ******************************************
 %nprocshared=24
 Will use up to   24 processors via shared memory.
 %mem=40GB
 %rwf=A891690742/A891690742_p1.rwf
 %nosave
 %chk=A891690742/A891690742_p1.chk
 ----------------------------------------------------------------------
 #p CAM-B3LYP/6-31G(d,p) SCRF=(PCM,Solvent=Generic,Read) NoSymm out=wfn
 ----------------------------------------------------------------------
 1/38=1,40=2/1;
 2/12=2,15=1,17=6,18=5,40=1/2;
 3/5=1,6=6,7=101,11=2,16=1,25=1,30=1,70=2203,72=-2,74=-40/1,2,3;
 4//1;
 5/5=2,38=5/2;
 6/7=2,8=2,9=2,10=2,28=1/1;
 99/5=1,6=100,9=1/99;
 Leave Link    1 at Sun Mar  3 18:03:41 2024, MaxMem=  5368709120 cpu:         1.2
 (Enter /home/k0335/k033513/app/g09/l101.exe)
 -------------------
 Title A891690742_p1
 -------------------
 Symbolic Z-matrix:
 Charge =  1 Multiplicity = 2
 C                    -4.88699  -2.45071  -1.07029 
 C                    -4.29887  -1.99227   0.25457 
 C                    -2.96738  -1.26995   0.05568 
 C                    -2.37899  -0.81022   1.39359 
 N                    -1.10021  -0.12137   1.21573 
 C                    -1.12603   1.22706   0.92548 
 O                    -2.18009   1.86061   0.8532 
 N                     0.09906   1.81367   0.68351 
 C                     0.12153   3.22564   0.2993 
 C                    -0.06508   3.40466  -1.20955 
 C                    -0.0382    4.8725   -1.6025 
 C                     1.28146   1.10687   0.64437 
 O                     2.32231   1.61717   0.2337 
 N                     1.23235  -0.20143   1.05075 
 C                     2.47965  -0.94871   1.04198 
 F                     3.38764  -0.18777   1.7314 
 F                     2.37389  -2.06096   1.82921 
 C                     3.11315  -1.36861  -0.32048 
 F                     3.41494  -0.28208  -1.08908 
 O                     4.32155  -2.14608  -0.24144 
 C                     5.33798  -1.53532   0.50727 
 F                     6.51659  -2.07488   0.14057 
 F                     5.14173  -1.79371   1.81119 
 F                     5.38736  -0.21196   0.29741 
 C                     2.09784  -2.20386  -1.09191 
 F                     2.59506  -2.57831  -2.29997 
 F                     1.76046  -3.34     -0.44808 
 F                     0.96303  -1.51107  -1.35105 
 C                     0.04923  -0.88022   1.17266 
 O                     0.00751  -2.10934   1.19382 
 H                    -5.07147  -1.5993   -1.73318 
 H                    -5.8389   -2.96487  -0.90478 
 H                    -4.21073  -3.1438   -1.58082 
 H                    -5.01263  -1.3267    0.75379 
 H                    -4.1566   -2.86292   0.90525 
 H                    -2.25906  -1.93521  -0.45322 
 H                    -3.11158  -0.40511  -0.6035 
 H                    -2.2332   -1.67391   2.05349 
 H                    -3.08289  -0.13848   1.89929 
 H                     1.0741    3.66958   0.61262 
 H                    -0.67001   3.75942   0.83878 
 H                     0.72378   2.87077  -1.75232 
 H                    -1.01753   2.96334  -1.52581 
 H                    -0.84005   5.42657  -1.10419 
 H                    -0.17327   4.97813  -2.68346 
 H                     0.91755   5.33314  -1.33295 
 
 NAtoms=     46 NQM=       46 NQMF=       0 NMMI=      0 NMMIF=      0
                NMic=       0 NMicF=      0.
                    Isotopes and Nuclear Properties:
 (Nuclear quadrupole moments (NQMom) in fm**2, nuclear magnetic moments (NMagM)
  in nuclear magnetons)

  Atom         1           2           3           4           5           6           7           8           9          10
 IAtWgt=          12          12          12          12          14          12          16          14          12          12
 AtmWgt=  12.0000000  12.0000000  12.0000000  12.0000000  14.0030740  12.0000000  15.9949146  14.0030740  12.0000000  12.0000000
 NucSpn=           0           0           0           0           2           0           0           2           0           0
 AtZEff=   0.0000000   0.0000000   0.0000000   0.0000000   0.0000000   0.0000000   0.0000000   0.0000000   0.0000000   0.0000000
 NQMom=    0.0000000   0.0000000   0.0000000   0.0000000   2.0440000   0.0000000   0.0000000   2.0440000   0.0000000   0.0000000
 NMagM=    0.0000000   0.0000000   0.0000000   0.0000000   0.4037610   0.0000000   0.0000000   0.4037610   0.0000000   0.0000000
 AtZNuc=   6.0000000   6.0000000   6.0000000   6.0000000   7.0000000   6.0000000   8.0000000   7.0000000   6.0000000   6.0000000

  Atom        11          12          13          14          15          16          17          18          19          20
 IAtWgt=          12          12          16          14          12          19          19          12          19          16
 AtmWgt=  12.0000000  12.0000000  15.9949146  14.0030740  12.0000000  18.9984033  18.9984033  12.0000000  18.9984033  15.9949146
 NucSpn=           0           0           0           2           0           1           1           0           1           0
 AtZEff=   0.0000000   0.0000000   0.0000000   0.0000000   0.0000000   0.0000000   0.0000000   0.0000000   0.0000000   0.0000000
 NQMom=    0.0000000   0.0000000   0.0000000   2.0440000   0.0000000   0.0000000   0.0000000   0.0000000   0.0000000   0.0000000
 NMagM=    0.0000000   0.0000000   0.0000000   0.4037610   0.0000000   2.6288670   2.6288670   0.0000000   2.6288670   0.0000000
 AtZNuc=   6.0000000   6.0000000   8.0000000   7.0000000   6.0000000   9.0000000   9.0000000   6.0000000   9.0000000   8.0000000

  Atom        21          22          23          24          25          26          27          28          29          30
 IAtWgt=          12          19          19          19          12          19          19          19          12          16
 AtmWgt=  12.0000000  18.9984033  18.9984033  18.9984033  12.0000000  18.9984033  18.9984033  18.9984033  12.0000000  15.9949146
 NucSpn=           0           1           1           1           0           1           1           1           0           0
 AtZEff=   0.0000000   0.0000000   0.0000000   0.0000000   0.0000000   0.0000000   0.0000000   0.0000000   0.0000000   0.0000000
 NQMom=    0.0000000   0.0000000   0.0000000   0.0000000   0.0000000   0.0000000   0.0000000   0.0000000   0.0000000   0.0000000
 NMagM=    0.0000000   2.6288670   2.6288670   2.6288670   0.0000000   2.6288670   2.6288670   2.6288670   0.0000000   0.0000000
 AtZNuc=   6.0000000   9.0000000   9.0000000   9.0000000   6.0000000   9.0000000   9.0000000   9.0000000   6.0000000   8.0000000

  Atom        31          32          33          34          35          36          37          38          39          40
 IAtWgt=           1           1           1           1           1           1           1           1           1           1
 AtmWgt=   1.0078250   1.0078250   1.0078250   1.0078250   1.0078250   1.0078250   1.0078250   1.0078250   1.0078250   1.0078250
 NucSpn=           1           1           1           1           1           1           1           1           1           1
 AtZEff=   0.0000000   0.0000000   0.0000000   0.0000000   0.0000000   0.0000000   0.0000000   0.0000000   0.0000000   0.0000000
 NQMom=    0.0000000   0.0000000   0.0000000   0.0000000   0.0000000   0.0000000   0.0000000   0.0000000   0.0000000   0.0000000
 NMagM=    2.7928460   2.7928460   2.7928460   2.7928460   2.7928460   2.7928460   2.7928460   2.7928460   2.7928460   2.7928460
 AtZNuc=   1.0000000   1.0000000   1.0000000   1.0000000   1.0000000   1.0000000   1.0000000   1.0000000   1.0000000   1.0000000

  Atom        41          42          43          44          45          46
 IAtWgt=           1           1           1           1           1           1
 AtmWgt=   1.0078250   1.0078250   1.0078250   1.0078250   1.0078250   1.0078250
 NucSpn=           1           1           1           1           1           1
 AtZEff=   0.0000000   0.0000000   0.0000000   0.0000000   0.0000000   0.0000000
 NQMom=    0.0000000   0.0000000   0.0000000   0.0000000   0.0000000   0.0000000
 NMagM=    2.7928460   2.7928460   2.7928460   2.7928460   2.7928460   2.7928460
 AtZNuc=   1.0000000   1.0000000   1.0000000   1.0000000   1.0000000   1.0000000
 Leave Link  101 at Sun Mar  3 18:03:41 2024, MaxMem=  5368709120 cpu:         1.0
 (Enter /home/k0335/k033513/app/g09/l202.exe)
                          Input orientation:                          
 ---------------------------------------------------------------------
 Center     Atomic      Atomic             Coordinates (Angstroms)
 Number     Number       Type             X           Y           Z
 ---------------------------------------------------------------------
      1          6           0       -4.886992   -2.450705   -1.070295
      2          6           0       -4.298865   -1.992270    0.254574
      3          6           0       -2.967383   -1.269951    0.055679
      4          6           0       -2.378988   -0.810218    1.393585
      5          7           0       -1.100212   -0.121367    1.215727
      6          6           0       -1.126029    1.227057    0.925479
      7          8           0       -2.180086    1.860614    0.853196
      8          7           0        0.099062    1.813668    0.683505
      9          6           0        0.121530    3.225640    0.299302
     10          6           0       -0.065075    3.404656   -1.209552
     11          6           0       -0.038196    4.872497   -1.602499
     12          6           0        1.281461    1.106867    0.644371
     13          8           0        2.322305    1.617168    0.233703
     14          7           0        1.232345   -0.201427    1.050745
     15          6           0        2.479645   -0.948709    1.041985
     16          9           0        3.387643   -0.187769    1.731401
     17          9           0        2.373888   -2.060962    1.829213
     18          6           0        3.113155   -1.368606   -0.320483
     19          9           0        3.414936   -0.282077   -1.089077
     20          8           0        4.321548   -2.146082   -0.241437
     21          6           0        5.337983   -1.535322    0.507266
     22          9           0        6.516593   -2.074880    0.140566
     23          9           0        5.141728   -1.793706    1.811189
     24          9           0        5.387356   -0.211957    0.297408
     25          6           0        2.097838   -2.203863   -1.091908
     26          9           0        2.595062   -2.578313   -2.299972
     27          9           0        1.760463   -3.339998   -0.448080
     28          9           0        0.963030   -1.511071   -1.351052
     29          6           0        0.049226   -0.880221    1.172659
     30          8           0        0.007510   -2.109344    1.193815
     31          1           0       -5.071470   -1.599295   -1.733176
     32          1           0       -5.838903   -2.964868   -0.904780
     33          1           0       -4.210733   -3.143804   -1.580821
     34          1           0       -5.012626   -1.326704    0.753786
     35          1           0       -4.156596   -2.862924    0.905246
     36          1           0       -2.259057   -1.935211   -0.453224
     37          1           0       -3.111580   -0.405112   -0.603497
     38          1           0       -2.233198   -1.673906    2.053488
     39          1           0       -3.082892   -0.138477    1.899288
     40          1           0        1.074104    3.669582    0.612620
     41          1           0       -0.670010    3.759423    0.838778
     42          1           0        0.723781    2.870767   -1.752315
     43          1           0       -1.017526    2.963339   -1.525811
     44          1           0       -0.840053    5.426570   -1.104188
     45          1           0       -0.173265    4.978135   -2.683457
     46          1           0        0.917545    5.333136   -1.332949
 ---------------------------------------------------------------------
                    Distance matrix (angstroms):
                    1          2          3          4          5
     1  C    0.000000
     2  C    1.520307   0.000000
     3  C    2.519305   1.527792   0.000000
     4  C    3.879689   2.525969   1.532173   0.000000
     5  N    4.999141   3.828247   2.480178   1.463358   0.000000
     6  C    5.626179   4.569581   3.222140   2.437113   1.379550
     7  O    5.441932   4.437599   3.325103   2.732202   2.286002
     8  N    6.791276   5.831887   4.393854   3.678277   2.337922
     9  C    7.692983   6.838748   5.459952   4.872186   3.678987
    10  C    7.586536   7.013947   5.645897   5.467694   4.402990
    11  C    8.799054   8.290178   7.004239   6.837330   5.831720
    12  C    7.324357   6.395047   4.903927   4.199455   2.739959
    13  O    8.379855   7.541112   6.028926   5.416612   3.962385
    14  N    6.855972   5.868159   4.446304   3.678300   2.339754
    15  C    7.809293   6.903422   5.544917   4.873307   3.678323
    16  F    9.024409   8.032412   6.660745   5.809957   4.517872
    17  F    7.828118   6.856372   5.683335   4.933960   4.025887
    18  C    8.107744   7.460408   6.092961   5.780438   4.654891
    19  F    8.580519   8.014542   6.558991   6.325512   5.071934
    20  O    9.250784   8.636041   7.347408   7.025312   5.968105
    21  C   10.386373   9.650984   8.321866   7.801473   6.629596
    22  F   11.473848  10.816374   9.518451   9.071978   7.936492
    23  F   10.455134   9.570124   8.313472   7.596237   6.489461
    24  F   10.604001   9.848565   8.424930   7.866106   6.552866
    25  C    6.989224   6.540305   5.276894   5.306778   4.459764
    26  F    7.583503   7.375322   6.180752   6.442802   5.661429
    27  F    6.735477   6.247043   5.185691   5.189082   4.616416
    28  F    5.931652   5.522420   4.181528   4.381017   3.574437
    29  C    5.644777   4.580986   3.240288   2.439248   1.378014
    30  O    5.403598   4.409166   3.293922   2.724520   2.275869
    31  H    1.094688   2.168524   2.781304   4.201040   5.162479
    32  H    1.094483   2.159112   3.469993   4.679317   5.919226
    33  H    1.094691   2.168519   2.781254   4.200953   5.160537
    34  H    2.146260   1.096196   2.161849   2.759012   4.119856
    35  H    2.146198   1.096199   2.161841   2.758979   4.117526
    36  H    2.748191   2.159873   1.096941   2.165802   2.723665
    37  H    2.748534   2.159862   1.096929   2.165442   2.726846
    38  H    4.171817   2.757613   2.166437   1.096669   2.096635
    39  H    4.173679   2.760475   2.166211   1.096564   2.097276
    40  H    8.707743   7.813678   6.406464   5.709848   4.411653
    41  H    7.745527   6.825823   5.584422   4.910197   3.922715
    42  H    7.762988   7.273493   5.834302   5.750958   4.592286
    43  H    6.670242   6.204435   4.921768   4.961470   4.127745
    44  H    8.856090   8.297518   7.121392   6.892366   6.019077
    45  H    8.944785   8.616214   7.372146   7.415694   6.485968
    46  H    9.713383   9.131962   7.785995   7.486115   6.349700
                    6          7          8          9         10
     6  C    0.000000
     7  O    1.231932   0.000000
     8  N    1.379678   2.285938   0.000000
     9  C    2.437793   2.732678   1.463483   0.000000
    10  C    3.228919   3.333507   2.478275   1.530852   0.000000
    11  C    4.567635   4.437293   3.821137   2.520813   1.519765
    12  C    2.426824   3.548810   1.378103   2.440023   3.245000
    13  O    3.538608   4.551325   2.276784   2.726701   3.313258
    14  N    2.760106   3.991957   2.340898   3.680131   4.449278
    15  C    4.212887   5.444358   3.664207   4.851543   5.522391
    16  F    4.798383   5.997226   3.989812   4.936574   5.785843
    17  F    4.886433   6.088518   4.636835   5.946588   6.712348
    18  C    5.124507   6.310609   4.496623   5.517341   5.803070
    19  F    5.191944   6.298239   4.304557   5.007814   5.071192
    20  O    6.512746   7.715120   5.862126   6.840172   7.140756
    21  C    7.041952   8.256719   6.220377   7.065507   7.519567
    22  F    8.362329   9.572261   7.523317   8.307680   8.669861
    23  F    7.013863   8.238978   6.301849   7.258238   7.953530
    24  F    6.699957   7.865789   5.676115   6.288561   6.714151
    25  C    5.121951   6.213215   4.825739   5.943127   6.012281
    26  F    6.223415   7.242139   5.866911   6.823522   6.637866
    27  F    5.574629   6.653391   5.531818   6.808251   7.028712
    28  F    4.128451   5.109417   3.992462   5.086081   5.024081
    29  C    2.425478   3.547403   2.738392   4.198342   4.903893
    30  O    3.533905   4.545565   3.957123   5.410657   6.015450
    31  H    5.533825   5.198114   6.650042   7.374158   7.097725
    32  H    6.567592   6.305767   7.785659   8.677498   8.602372
    33  H    5.907738   5.923864   6.948240   7.929261   7.759294
    34  H    4.653688   4.265227   5.999686   6.876769   7.121708
    35  H    5.090451   5.120655   6.326951   7.465932   7.777884
    36  H    3.631049   4.015129   4.572414   5.733051   5.822351
    37  H    2.990678   2.850114   4.109450   4.944735   4.915570
    38  H    3.303606   3.733143   4.413554   5.712045   6.414045
    39  H    2.577266   2.430171   3.926045   4.913813   5.596954
    40  H    3.302180   3.730951   2.097653   1.096654   2.165231
    41  H    2.574558   2.426111   2.097986   1.096583   2.165055
    42  H    3.646116   4.030079   2.727811   2.167435   1.096322
    43  H    3.005873   2.868314   2.729394   2.167323   1.096332
    44  H    4.673033   4.282883   4.138942   2.781819   2.167909
    45  H    5.291764   5.123884   4.628655   3.472030   2.158689
    46  H    5.112394   5.141299   4.137953   2.781982   2.167903
                   11         12         13         14         15
    11  C    0.000000
    12  C    4.579289   0.000000
    13  O    4.420494   1.229801   0.000000
    14  N    5.865039   1.370834   2.272192   0.000000
    15  C    6.871627   2.412288   2.694773   1.454051   0.000000
    16  F    6.961146   2.700689   2.576013   2.260263   1.370688
    17  F    8.103558   3.554207   4.009608   2.316679   1.366755
    18  C    7.108160   3.227075   3.138059   2.603847   1.560118
    19  F    6.225541   3.079890   2.559438   3.057621   2.420866
    20  O    8.373787   4.539654   4.287748   3.872285   2.544304
    21  C    8.626387   4.843070   4.371195   4.350966   2.966502
    22  F    9.709252   6.146864   5.588555   5.679923   4.286930
    23  F    9.106214   4.967540   4.698050   4.289161   2.896961
    24  F    7.674499   4.326437   3.569915   4.222765   3.090628
    25  C    7.409333   3.826496   4.050668   3.057743   2.504933
    26  F    7.933164   4.896453   4.908764   4.328266   3.719893
    27  F    8.486043   4.604074   5.035274   3.517956   2.907882
    28  F    6.466500   3.307070   3.760978   2.748877   2.888425
    29  C    6.387715   2.397084   3.505065   1.369451   2.434893
    30  O    7.521141   3.502692   4.490766   2.271748   2.735247
    31  H    8.199696   7.303135   8.299527   7.031524   8.071191
    32  H    9.775444   8.347364   9.428495   7.839849   8.777986
    33  H    9.037235   7.292728   8.284922   6.723825   7.513901
    34  H    8.290182   6.749057   7.920737   6.352487   7.507334
    35  H    9.115193   6.737934   7.905590   6.012106   6.908155
    36  H    7.252444   4.795229   5.837820   4.178255   5.065978
    37  H    6.188445   4.810620   5.858125   4.652708   5.853623
    38  H    7.812789   4.697993   5.907232   3.896624   4.874417
    39  H    6.829535   4.708851   5.922214   4.398324   5.686234
    40  H    2.755171   2.571286   2.431869   3.898936   4.846495
    41  H    2.756439   3.298801   3.729520   4.399116   5.668168
    42  H    2.147086   3.027615   2.840961   4.189768   5.047729
    43  H    2.147057   3.666268   4.007809   4.660076   5.841909
    44  H    1.094662   5.120363   5.128548   6.372827   7.501376
    45  H    1.094474   5.308237   5.102332   6.538185   7.486276
    46  H    1.094663   4.680126   4.270383   6.034276   6.895074
                   16         17         18         19         20
    16  F    0.000000
    17  F    2.132163   0.000000
    18  C    2.383264   2.376355   0.000000
    19  F    2.822186   3.572762   1.364681   0.000000
    20  O    2.932449   2.843979   1.439073   2.239409   0.000000
    21  C    2.668001   3.287811   2.379669   2.795898   1.402399
    22  F    3.985257   4.473670   3.506391   3.787670   2.229174
    23  F    2.379541   2.780771   2.973188   3.698429   2.238334
    24  F    2.460848   3.853081   2.625189   2.411990   2.273134
    25  C    3.701257   2.937613   1.524342   2.329810   2.381497
    26  F    4.753404   4.167342   2.377012   2.722345   2.721239
    27  F    4.163460   2.682962   2.394252   3.535398   2.833248
    28  F    4.139009   3.522355   2.388599   2.755159   3.593623
    29  C    3.454954   2.688729   3.443204   4.098930   4.674912
    30  O    3.925143   2.450677   3.533670   4.490106   4.546672
    31  H    9.249448   8.266626   8.308851   8.612143   9.526439
    32  H    9.989539   8.702971   9.112014   9.636642  10.214950
    33  H    8.800243   7.493872   7.640623   8.159787   8.694206
    34  H    8.533313   7.500418   8.196592   8.689718   9.422773
    35  H    8.047020   6.644101   7.522279   8.244161   8.585317
    36  H    6.301695   5.166189   5.403640   5.944019   6.587388
    37  H    6.909333   6.224972   6.305216   6.545711   7.642870
    38  H    5.822903   4.628753   5.857682   6.611681   6.960914
    39  H    6.472900   5.785958   6.695640   7.153511   7.964855
    40  H    4.635007   6.000723   5.514685   4.898048   6.715449
    41  H    5.730763   6.642526   6.477106   6.061116   7.807529
    42  H    5.346689   6.314440   5.072626   4.197931   6.355742
    43  H    6.320160   6.928310   6.105824   5.510915   7.500767
    44  H    7.578574   8.660104   7.900409   7.119959   9.204973
    45  H    7.671871   8.740770   7.527637   6.564074   8.770477
    46  H    6.780267   8.172692   7.124545   6.150370   8.289592
                   21         22         23         24         25
    21  C    0.000000
    22  F    1.347113   0.000000
    23  F    1.343687   2.181810   0.000000
    24  F    1.340811   2.184092   2.203133   0.000000
    25  C    3.674622   4.589229   4.226283   4.088865   0.000000
    26  F    4.061038   4.646297   4.899261   4.488087   1.358993
    27  F    4.119246   4.956592   4.350663   4.847138   1.348755
    28  F    4.753330   5.777964   5.247968   4.896915   1.354587
    29  C    5.370555   6.657271   5.213037   5.450530   3.328228
    30  O    5.405071   6.593837   5.180827   5.774631   3.098860
    31  H   10.648023  11.748204  10.812480  10.744069   7.223275
    32  H   11.356067  12.431537  11.371999  11.621216   7.975337
    33  H    9.905821  10.917019  10.039772  10.210131   6.396921
    34  H   10.355646  11.569732  10.219936  10.469507   7.398290
    35  H    9.595204  10.729525   9.403339   9.923916   6.598555
    36  H    7.667951   8.796825   7.740750   7.874051   4.411647
    37  H    8.596876   9.800177   8.710683   8.548734   5.532819
    38  H    7.728699   8.965428   7.379878   7.955750   5.378870
    39  H    8.648701   9.949516   8.389989   8.620703   6.328747
    40  H    6.729249   7.927318   6.915898   5.811183   6.200871
    41  H    8.014999   9.282987   8.096859   7.263375   6.851957
    42  H    6.768322   7.848509   7.346708   5.954283   5.298683
    43  H    8.047599   9.215390   8.467671   7.377611   6.049276
    44  H    9.446314  10.580237   9.819038   8.516929   8.176482
    45  H    9.109319  10.122960   9.711273   8.169646   7.698833
    46  H    8.372716   9.402089   8.861219   7.306527   7.632663
                   26         27         28         29         30
    26  F    0.000000
    27  F    2.169383   0.000000
    28  F    2.168636   2.190030   0.000000
    29  C    4.628603   3.406704   2.757195   0.000000
    30  O    4.372860   2.698735   2.783397   1.230013   0.000000
    31  H    7.749545   7.166368   6.047230   5.931481   5.884171
    32  H    8.557321   7.622313   6.969862   6.582672   6.270292
    33  H    6.867008   6.080853   5.430141   5.554522   5.153861
    34  H    8.292700   7.167466   6.338202   5.098740   5.099796
    35  H    7.479259   6.088569   5.755776   4.657420   4.241572
    36  H    5.233214   4.257933   3.371622   3.014079   2.807202
    37  H    6.337712   5.689861   4.287707   3.656659   3.982896
    38  H    6.563738   4.998303   4.672610   2.572014   2.439143
    39  H    7.471663   6.262425   5.368259   3.299748   3.732639
    40  H    7.059228   7.122527   5.541436   4.697311   5.905201
    41  H    7.789695   7.613474   5.936353   4.706918   5.918404
    42  H    5.787408   6.430345   4.406672   4.804207   5.830457
    43  H    6.660332   6.972143   4.896273   4.815875   5.846296
    44  H    8.792501   9.167654   7.172371   6.763909   7.923962
    45  H    8.056712   8.827658   6.721329   7.017084   8.080735
    46  H    8.144951   8.758810   6.844382   6.755580   7.912219
                   31         32         33         34         35
    31  H    0.000000
    32  H    1.772000   0.000000
    33  H    1.774708   1.772001   0.000000
    34  H    2.502548   2.473289   3.065171   0.000000
    35  H    3.065130   2.473205   2.502469   1.765134   0.000000
    36  H    3.108180   3.752252   2.557579   3.067458   2.511324
    37  H    2.558010   3.752521   3.108655   2.511080   3.067443
    38  H    4.732883   4.839322   4.390837   3.087879   2.536076
    39  H    4.391267   4.842198   4.734467   2.539278   3.092502
    40  H    8.428043   9.700933   8.897354   7.875981   8.373738
    41  H    7.396192   8.658726   8.126852   6.688365   7.484396
    42  H    7.318931   8.822798   7.781639   7.536954   7.984731
    43  H    6.106971   7.666485   6.891792   6.289822   7.050471
    44  H    8.225770   9.769570   9.221712   8.152861   9.151666
    45  H    8.255788   9.917381   9.136895   8.659391   9.498838
    46  H    9.169901  10.709332   9.910559   9.158322   9.896051
                   36         37         38         39         40
    36  H    0.000000
    37  H    1.758005   0.000000
    38  H    2.520427   3.072615   0.000000
    39  H    3.072665   2.517111   1.761619   0.000000
    40  H    6.607548   5.966743   6.447264   5.782512   0.000000
    41  H    6.051710   5.038330   5.782745   4.705349   1.761009
    42  H    5.803653   5.173119   6.624343   6.072933   2.520664
    43  H    5.166008   4.072123   5.982749   5.061453   3.073529
    44  H    7.525500   6.278459   7.894842   6.709765   3.114231
    45  H    7.557699   6.476054   8.422091   7.459705   3.759304
    46  H    7.980826   7.049357   8.396057   7.509288   2.564598
                   41         42         43         44         45
    41  H    0.000000
    42  H    3.073455   0.000000
    43  H    2.519087   1.758415   0.000000
    44  H    2.565816   3.065579   2.505348   0.000000
    45  H    3.760074   2.472391   2.472311   1.771945   0.000000
    46  H    3.116617   2.505329   3.065556   1.774884   1.771938
                   46
    46  H    0.000000
 Symmetry turned off by external request.
 Stoichiometry    C14H16F9N3O4(1+,2)
 Framework group  C1[X(C14H16F9N3O4)]
 Deg. of freedom   132
 Full point group                 C1      NOp   1
 Rotational constants (GHZ):      0.2243197      0.1136090      0.0915082
 Leave Link  202 at Sun Mar  3 18:03:41 2024, MaxMem=  5368709120 cpu:         0.1
 (Enter /home/k0335/k033513/app/g09/l301.exe)
 Standard basis: 6-31G(d,p) (6D, 7F)
 Ernie: Thresh=  0.10000D-02 Tol=  0.10000D-05 Strict=F.
   530 basis functions,   952 primitive gaussians,   530 cartesian basis functions
   117 alpha electrons      116 beta electrons
       nuclear repulsion energy      3695.5268140329 Hartrees.
 IExCor=20419 DFT=T Ex+Corr=CAM-B3LYP ExCW=0 ScaHFX=  1.000000
 ScaDFX=  1.000000  1.000000  1.000000  0.810000 ScalE2=  1.000000  1.000000
 IRadAn=      0 IRanWt=     -1 IRanGd=            0 ICorTp=0 IEmpDi=  4
  HFx wShort=  0.000000 wLong=  0.330000 cFull=  0.190000 cShort=  0.000000 cLong=  0.460000
  DFx wShort=  0.000000 wLong=  0.330000 cFull=  0.190000 cShort=  0.000000 cLong=  0.460000
 NAtoms=   46 NActive=   46 NUniq=   46 SFac= 1.00D+00 NAtFMM=   60 NAOKFM=F Big=F
 Integral buffers will be    131072 words long.
 Raffenetti 2 integral format.
 Two-electron integral symmetry is turned off.
 Using the following non-standard input for PCM:
 eps=4.9
 --- end of non-standard input.
 ------------------------------------------------------------------------------
 Polarizable Continuum Model (PCM)
 =================================
 Model                : PCM (using non-symmetric T matrix).
 Atomic radii         : UFF (Universal Force Field).
 Polarization charges : Total charges.
 Charge compensation  : None.
 Solution method      : On-the-fly selection.
 Cavity type          : Scaled VdW (van der Waals Surface) (Alpha=1.100).
 Cavity algorithm     : GePol (No added spheres)
                        Default sphere list used, NSphG=   46.
                        Lebedev-Laikov grids with approx.  5.0 points / Ang**2.
                        Smoothing algorithm: Karplus/York (Gamma=1.0000).
                        Polarization charges: spherical gaussians, with
                                              point-specific exponents (IZeta= 3).
                        Self-potential: point-specific (ISelfS= 7).
                        Self-field    : sphere-specific E.n sum rule (ISelfD= 2).
 Solvent              : Generic,
                        Eps                           =   4.900000
                        Eps(infinity)                 =   0.000000
                        RSolv                         =   0.000000 Ang.
                        Molar volume                  =   0.000000 cm**3/mol
                        Thermal expansion coefficient =   0.000000 K**-1
                        Absolute temperature          = 298.150000 K
                        Numeral density               =   0.000000 Ang**-3
                        Hydrogen bond acidity         =   0.000000
                        Hydrogen bond basicity        =   0.000000
                        Surface tension at interface  =   0.000000 (cal/mol)*Ang**-2
                        Carbon aromaticity            =   0.000000
                        Electronegative halogenicity  =   0.000000
 ------------------------------------------------------------------------------
 GePol: Number of generator spheres                  =      46
 GePol: Total number of spheres                      =      46
 GePol: Number of exposed spheres                    =      46 (100.00%)
 GePol: Number of points                             =    3454
 GePol: Average weight of points                     =       0.13
 GePol: Minimum weight of points                     =   0.11D-11
 GePol: Maximum weight of points                     =    0.20577
 GePol: Number of points with low weight             =     177
 GePol: Fraction of low-weight points (<1% of avg)   =       5.12%
 GePol: Cavity surface area                          =    432.488 Ang**2
 GePol: Cavity volume                                =    487.074 Ang**3
 Leave Link  301 at Sun Mar  3 18:03:41 2024, MaxMem=  5368709120 cpu:         0.9
 (Enter /home/k0335/k033513/app/g09/l302.exe)
 NPDir=0 NMtPBC=     1 NCelOv=     1 NCel=       1 NClECP=     1 NCelD=      1
         NCelK=      1 NCelE2=     1 NClLst=     1 CellRange=     0.0.
 One-electron integrals computed using PRISM.
 NBasis=   530 RedAO= T EigKep=  1.24D-03  NBF=   530
 NBsUse=   530 1.00D-06 EigRej= -1.00D+00 NBFU=   530
 Precomputing XC quadrature grid using
 IXCGrd= 4 IRadAn=           0 IRanWt=          -1 IRanGd=           0 AccXCQ= 0.00D+00.
 Generated NRdTot=       0 NPtTot=           0 NUsed=           0 NTot=          32
 NSgBfM=   516   516   516   516   516 MxSgAt=    46 MxSgA2=    46.
 Leave Link  302 at Sun Mar  3 18:03:42 2024, MaxMem=  5368709120 cpu:         9.8
 (Enter /home/k0335/k033513/app/g09/l303.exe)
 DipDrv:  MaxL=1.
 Leave Link  303 at Sun Mar  3 18:03:42 2024, MaxMem=  5368709120 cpu:         0.9
 (Enter /home/k0335/k033513/app/g09/l401.exe)
 ExpMin= 1.61D-01 ExpMax= 7.00D+03 ExpMxC= 1.05D+03 IAcc=1 IRadAn=         1 AccDes= 0.00D+00
 Harris functional with IExCor=20419 and IRadAn=       1 diagonalized for initial guess.
 HarFok:  IExCor=20419 AccDes= 0.00D+00 IRadAn=         1 IDoV= 1 UseB2=F ITyADJ=14
 ICtDFT=  3500011 ScaDFX=  1.000000  1.000000  1.000000  1.000000
 FoFCou: FMM=F IPFlag=           0 FMFlag=      100000 FMFlg1=           0
         NFxFlg=           0 DoJE=T BraDBF=F KetDBF=T FulRan=T
         wScrn=  0.000000 ICntrl=     500 IOpCl=  0 I1Cent=   200000004 NGrid=           0
         NMat0=    1 NMatS0=      1 NMatT0=    0 NMatD0=    1 NMtDS0=    0 NMtDT0=    0
 Symmetry not used in FoFCou.
 Harris En= -1844.64934049468    
 JPrj=0 DoOrth=F DoCkMO=F.
 Initial guess <Sx>= 0.0000 <Sy>= 0.0000 <Sz>= 0.5000 <S**2>= 0.7500 S= 0.5000
 Leave Link  401 at Sun Mar  3 18:03:42 2024, MaxMem=  5368709120 cpu:        13.7
 (Enter /home/k0335/k033513/app/g09/l502.exe)
 UHF open shell SCF:
 Using DIIS extrapolation, IDIIS=  1040.
 Two-electron integral symmetry not used.
 IVT=      877242 IEndB=      877242 NGot=  5368709120 MDV=  5368129949
 LenX=  5368129949 LenY=  5367848519
 Requested convergence on RMS density matrix=1.00D-08 within 128 cycles.
 Requested convergence on MAX density matrix=1.00D-06.
 Requested convergence on             energy=1.00D-06.
 No special actions if energy rises.
 Fock matrices will be formed incrementally for  20 cycles.

 Cycle   1  Pass 1  IDiag  1:
 FoFJK:  IHMeth= 1 ICntrl=       0 DoSepK=T KAlg= 0 I1Cent=   0 FoldK=F
 IRaf=         1 NMat=   1 IRICut=       1 DoRegI=T DoRafI=F ISym2E= 0.
 FoFCou: FMM=F IPFlag=           0 FMFlag=      100000 FMFlg1=           0
         NFxFlg=           0 DoJE=T BraDBF=F KetDBF=F FulRan=T
         wScrn=  0.000000 ICntrl=     500 IOpCl=  0 I1Cent=           0 NGrid=           0
         NMat0=    1 NMatS0=      1 NMatT0=    0 NMatD0=    1 NMtDS0=    0 NMtDT0=    0
 Symmetry not used in FoFCou.
 Inv3:  Mode=1 IEnd=    35790348.
 Iteration    1 A*A^-1 deviation from unit magnitude is 7.33D-15 for   3430.
 Iteration    1 A*A^-1 deviation from orthogonality  is 3.29D-15 for   3442    614.
 Iteration    1 A^-1*A deviation from unit magnitude is 7.55D-15 for   3430.
 Iteration    1 A^-1*A deviation from orthogonality  is 5.06D-11 for   3027   3009.
 E= -1905.10753661015    
 DIIS: error= 5.93D-02 at cycle   1 NSaved=   1.
 NSaved= 1 IEnMin= 1 EnMin= -1905.10753661015     IErMin= 1 ErrMin= 5.93D-02
 ErrMax= 5.93D-02  0.00D+00 EMaxC= 1.00D-01 BMatC= 7.07D+00 BMatP= 7.07D+00
 IDIUse=3 WtCom= 4.07D-01 WtEn= 5.93D-01
 Coeff-Com:  0.100D+01
 Coeff-En:   0.100D+01
 Coeff:      0.100D+01
 Gap=     0.544 Goal=   None    Shift=    0.000
 Gap=    -0.030 Goal=   None    Shift=    0.000
 GapD=   -0.030 DampG=0.250 DampE=0.500 DampFc=0.2500 IDamp=-1.
 Damping current iteration by 2.50D-01
 RMSDP=3.63D-03 MaxDP=1.81D-01              OVMax= 5.29D-01

 Cycle   2  Pass 1  IDiag  1:
 RMSU=  9.09D-04    CP:  1.00D+00
 E= -1905.38695876871     Delta-E=       -0.279422158565 Rises=F Damp=T
 DIIS: error= 4.60D-02 at cycle   2 NSaved=   2.
 NSaved= 2 IEnMin= 2 EnMin= -1905.38695876871     IErMin= 2 ErrMin= 4.60D-02
 ErrMax= 4.60D-02  0.00D+00 EMaxC= 1.00D-01 BMatC= 2.89D+00 BMatP= 7.07D+00
 IDIUse=3 WtCom= 5.40D-01 WtEn= 4.60D-01
 Coeff-Com: -0.135D+01 0.235D+01
 Coeff-En:   0.000D+00 0.100D+01
 Coeff:     -0.728D+00 0.173D+01
 Gap=     0.466 Goal=   None    Shift=    0.000
 Gap=     0.072 Goal=   None    Shift=    0.000
 RMSDP=2.00D-03 MaxDP=8.33D-02 DE=-2.79D-01 OVMax= 5.15D-01

 Cycle   3  Pass 1  IDiag  1:
 RMSU=  1.37D-03    CP:  9.99D-01  2.60D+00
 E= -1905.88079969847     Delta-E=       -0.493840929762 Rises=F Damp=F
 DIIS: error= 7.43D-03 at cycle   3 NSaved=   3.
 NSaved= 3 IEnMin= 3 EnMin= -1905.88079969847     IErMin= 3 ErrMin= 7.43D-03
 ErrMax= 7.43D-03  0.00D+00 EMaxC= 1.00D-01 BMatC= 3.55D-01 BMatP= 2.89D+00
 IDIUse=3 WtCom= 9.26D-01 WtEn= 7.43D-02
 Coeff-Com: -0.400D+00 0.745D+00 0.654D+00
 Coeff-En:   0.000D+00 0.000D+00 0.100D+01
 Coeff:     -0.370D+00 0.690D+00 0.680D+00
 Gap=     0.417 Goal=   None    Shift=    0.000
 Gap=     0.061 Goal=   None    Shift=    0.000
 RMSDP=7.57D-04 MaxDP=5.16D-02 DE=-4.94D-01 OVMax= 1.48D-01

 Cycle   4  Pass 1  IDiag  1:
 RMSU=  7.07D-04    CP:  9.99D-01  2.60D+00  8.03D-01
 E= -1905.93368715179     Delta-E=       -0.052887453322 Rises=F Damp=F
 DIIS: error= 6.02D-03 at cycle   4 NSaved=   4.
 NSaved= 4 IEnMin= 4 EnMin= -1905.93368715179     IErMin= 4 ErrMin= 6.02D-03
 ErrMax= 6.02D-03  0.00D+00 EMaxC= 1.00D-01 BMatC= 1.09D-01 BMatP= 3.55D-01
 IDIUse=3 WtCom= 9.40D-01 WtEn= 6.02D-02
 Coeff-Com: -0.192D-02 0.273D-01 0.352D+00 0.623D+00
 Coeff-En:   0.000D+00 0.000D+00 0.189D+00 0.811D+00
 Coeff:     -0.180D-02 0.257D-01 0.342D+00 0.634D+00
 Gap=     0.372 Goal=   None    Shift=    0.000
 Gap=     0.117 Goal=   None    Shift=    0.000
 RMSDP=3.40D-04 MaxDP=4.25D-02 DE=-5.29D-02 OVMax= 1.02D-01

 Cycle   5  Pass 1  IDiag  1:
 RMSU=  2.27D-04    CP:  9.98D-01  2.55D+00  9.20D-01  7.31D-01
 E= -1905.95672385797     Delta-E=       -0.023036706178 Rises=F Damp=F
 DIIS: error= 2.37D-03 at cycle   5 NSaved=   5.
 NSaved= 5 IEnMin= 5 EnMin= -1905.95672385797     IErMin= 5 ErrMin= 2.37D-03
 ErrMax= 2.37D-03  0.00D+00 EMaxC= 1.00D-01 BMatC= 1.03D-02 BMatP= 1.09D-01
 IDIUse=3 WtCom= 9.76D-01 WtEn= 2.37D-02
 Coeff-Com: -0.913D-02 0.130D-01 0.106D+00 0.299D+00 0.591D+00
 Coeff-En:   0.000D+00 0.000D+00 0.000D+00 0.000D+00 0.100D+01
 Coeff:     -0.891D-02 0.127D-01 0.104D+00 0.292D+00 0.600D+00
 Gap=     0.369 Goal=   None    Shift=    0.000
 Gap=     0.099 Goal=   None    Shift=    0.000
 RMSDP=1.20D-04 MaxDP=1.43D-02 DE=-2.30D-02 OVMax= 3.89D-02

 Cycle   6  Pass 1  IDiag  1:
 RMSU=  1.07D-04    CP:  9.98D-01  2.57D+00  9.18D-01  7.99D-01  1.08D+00
 E= -1905.96019316439     Delta-E=       -0.003469306419 Rises=F Damp=F
 DIIS: error= 1.15D-03 at cycle   6 NSaved=   6.
 NSaved= 6 IEnMin= 6 EnMin= -1905.96019316439     IErMin= 6 ErrMin= 1.15D-03
 ErrMax= 1.15D-03  0.00D+00 EMaxC= 1.00D-01 BMatC= 2.18D-03 BMatP= 1.03D-02
 IDIUse=3 WtCom= 9.89D-01 WtEn= 1.15D-02
 Coeff-Com: -0.358D-01 0.457D-01-0.477D-01-0.313D-01 0.232D+00 0.837D+00
 Coeff-En:   0.000D+00 0.000D+00 0.000D+00 0.000D+00 0.000D+00 0.100D+01
 Coeff:     -0.354D-01 0.451D-01-0.471D-01-0.309D-01 0.229D+00 0.839D+00
 Gap=     0.368 Goal=   None    Shift=    0.000
 Gap=     0.106 Goal=   None    Shift=    0.000
 RMSDP=1.03D-04 MaxDP=1.03D-02 DE=-3.47D-03 OVMax= 3.15D-02

 Cycle   7  Pass 1  IDiag  1:
 RMSU=  4.32D-05    CP:  9.98D-01  2.58D+00  9.19D-01  8.27D-01  1.44D+00
                    CP:  1.37D+00
 E= -1905.96203478318     Delta-E=       -0.001841618794 Rises=F Damp=F
 DIIS: error= 6.64D-04 at cycle   7 NSaved=   7.
 NSaved= 7 IEnMin= 7 EnMin= -1905.96203478318     IErMin= 7 ErrMin= 6.64D-04
 ErrMax= 6.64D-04  0.00D+00 EMaxC= 1.00D-01 BMatC= 7.99D-04 BMatP= 2.18D-03
 IDIUse=3 WtCom= 9.93D-01 WtEn= 6.64D-03
 Coeff-Com: -0.340D-01 0.456D-01-0.716D-01-0.122D+00-0.717D-01 0.323D+00
 Coeff-Com:  0.931D+00
 Coeff-En:   0.000D+00 0.000D+00 0.000D+00 0.000D+00 0.000D+00 0.000D+00
 Coeff-En:   0.100D+01
 Coeff:     -0.338D-01 0.453D-01-0.712D-01-0.121D+00-0.713D-01 0.321D+00
 Coeff:      0.931D+00
 Gap=     0.367 Goal=   None    Shift=    0.000
 Gap=     0.113 Goal=   None    Shift=    0.000
 RMSDP=9.48D-05 MaxDP=1.43D-02 DE=-1.84D-03 OVMax= 3.84D-02

 Cycle   8  Pass 1  IDiag  1:
 RMSU=  3.17D-05    CP:  9.98D-01  2.59D+00  9.13D-01  8.48D-01  1.73D+00
                    CP:  1.87D+00  1.45D+00
 E= -1905.96306711066     Delta-E=       -0.001032327472 Rises=F Damp=F
 DIIS: error= 4.24D-04 at cycle   8 NSaved=   8.
 NSaved= 8 IEnMin= 8 EnMin= -1905.96306711066     IErMin= 8 ErrMin= 4.24D-04
 ErrMax= 4.24D-04  0.00D+00 EMaxC= 1.00D-01 BMatC= 2.65D-04 BMatP= 7.99D-04
 IDIUse=3 WtCom= 9.96D-01 WtEn= 4.24D-03
 Coeff-Com: -0.791D-02 0.117D-01-0.135D-01-0.255D-01-0.772D-01-0.220D+00
 Coeff-Com:  0.440D+00 0.893D+00
 Coeff-En:   0.000D+00 0.000D+00 0.000D+00 0.000D+00 0.000D+00 0.000D+00
 Coeff-En:   0.000D+00 0.100D+01
 Coeff:     -0.788D-02 0.116D-01-0.134D-01-0.254D-01-0.769D-01-0.219D+00
 Coeff:      0.438D+00 0.893D+00
 Gap=     0.365 Goal=   None    Shift=    0.000
 Gap=     0.116 Goal=   None    Shift=    0.000
 RMSDP=5.86D-05 MaxDP=6.54D-03 DE=-1.03D-03 OVMax= 2.52D-02

 Cycle   9  Pass 1  IDiag  1:
 RMSU=  1.70D-05    CP:  9.98D-01  2.59D+00  9.07D-01  8.56D-01  1.89D+00
                    CP:  2.15D+00  2.07D+00  1.33D+00
 E= -1905.96341430259     Delta-E=       -0.000347191935 Rises=F Damp=F
 DIIS: error= 1.97D-04 at cycle   9 NSaved=   9.
 NSaved= 9 IEnMin= 9 EnMin= -1905.96341430259     IErMin= 9 ErrMin= 1.97D-04
 ErrMax= 1.97D-04  0.00D+00 EMaxC= 1.00D-01 BMatC= 7.32D-05 BMatP= 2.65D-04
 IDIUse=3 WtCom= 9.98D-01 WtEn= 1.97D-03
 Coeff-Com:  0.853D-02-0.112D-01 0.196D-01 0.322D-01-0.203D-02-0.233D+00
 Coeff-Com: -0.920D-01 0.407D+00 0.871D+00
 Coeff-En:   0.000D+00 0.000D+00 0.000D+00 0.000D+00 0.000D+00 0.000D+00
 Coeff-En:   0.000D+00 0.000D+00 0.100D+01
 Coeff:      0.852D-02-0.112D-01 0.195D-01 0.321D-01-0.203D-02-0.232D+00
 Coeff:     -0.918D-01 0.406D+00 0.872D+00
 Gap=     0.365 Goal=   None    Shift=    0.000
 Gap=     0.118 Goal=   None    Shift=    0.000
 RMSDP=3.41D-05 MaxDP=4.62D-03 DE=-3.47D-04 OVMax= 1.37D-02

 Cycle  10  Pass 1  IDiag  1:
 RMSU=  1.09D-05    CP:  9.98D-01  2.59D+00  9.04D-01  8.61D-01  1.96D+00
                    CP:  2.31D+00  2.40D+00  1.81D+00  1.37D+00
 E= -1905.96352150362     Delta-E=       -0.000107201033 Rises=F Damp=F
 DIIS: error= 1.06D-04 at cycle  10 NSaved=  10.
 NSaved=10 IEnMin=10 EnMin= -1905.96352150362     IErMin=10 ErrMin= 1.06D-04
 ErrMax= 1.06D-04  0.00D+00 EMaxC= 1.00D-01 BMatC= 2.21D-05 BMatP= 7.32D-05
 IDIUse=3 WtCom= 9.99D-01 WtEn= 1.06D-03
 Coeff-Com:  0.355D-02-0.490D-02 0.717D-02 0.870D-02 0.271D-01 0.550D-02
 Coeff-Com: -0.107D+00-0.168D+00 0.227D+00 0.100D+01
 Coeff-En:   0.000D+00 0.000D+00 0.000D+00 0.000D+00 0.000D+00 0.000D+00
 Coeff-En:   0.000D+00 0.000D+00 0.000D+00 0.100D+01
 Coeff:      0.355D-02-0.490D-02 0.716D-02 0.869D-02 0.271D-01 0.550D-02
 Coeff:     -0.107D+00-0.168D+00 0.226D+00 0.100D+01
 Gap=     0.364 Goal=   None    Shift=    0.000
 Gap=     0.118 Goal=   None    Shift=    0.000
 RMSDP=1.82D-05 MaxDP=2.16D-03 DE=-1.07D-04 OVMax= 4.77D-03

 Cycle  11  Pass 1  IDiag  1:
 RMSU=  6.48D-06    CP:  9.98D-01  2.59D+00  9.03D-01  8.60D-01  1.98D+00
                    CP:  2.36D+00  2.54D+00  2.06D+00  1.89D+00  1.65D+00
 E= -1905.96355973042     Delta-E=       -0.000038226800 Rises=F Damp=F
 DIIS: error= 8.42D-05 at cycle  11 NSaved=  11.
 NSaved=11 IEnMin=11 EnMin= -1905.96355973042     IErMin=11 ErrMin= 8.42D-05
 ErrMax= 8.42D-05  0.00D+00 EMaxC= 1.00D-01 BMatC= 1.16D-05 BMatP= 2.21D-05
 IDIUse=1 WtCom= 1.00D+00 WtEn= 0.00D+00
 Coeff-Com: -0.449D-03 0.502D-03-0.106D-02-0.501D-02 0.192D-01 0.511D-01
 Coeff-Com: -0.170D-01-0.197D+00-0.107D+00 0.463D+00 0.794D+00
 Coeff:     -0.449D-03 0.502D-03-0.106D-02-0.501D-02 0.192D-01 0.511D-01
 Coeff:     -0.170D-01-0.197D+00-0.107D+00 0.463D+00 0.794D+00
 Gap=     0.364 Goal=   None    Shift=    0.000
 Gap=     0.118 Goal=   None    Shift=    0.000
 RMSDP=1.23D-05 MaxDP=1.26D-03 DE=-3.82D-05 OVMax= 4.11D-03

 Cycle  12  Pass 1  IDiag  1:
 RMSU=  3.61D-06    CP:  9.98D-01  2.59D+00  9.02D-01  8.60D-01  1.99D+00
                    CP:  2.39D+00  2.61D+00  2.23D+00  2.19D+00  2.28D+00
                    CP:  1.66D+00
 E= -1905.96357924993     Delta-E=       -0.000019519509 Rises=F Damp=F
 DIIS: error= 8.90D-05 at cycle  12 NSaved=  12.
 NSaved=12 IEnMin=12 EnMin= -1905.96357924993     IErMin=11 ErrMin= 8.42D-05
 ErrMax= 8.90D-05  0.00D+00 EMaxC= 1.00D-01 BMatC= 5.77D-06 BMatP= 1.16D-05
 IDIUse=1 WtCom= 1.00D+00 WtEn= 0.00D+00
 Coeff-Com: -0.340D-03 0.479D-03-0.123D-02-0.295D-02-0.191D-03-0.222D-01
 Coeff-Com:  0.497D-01 0.116D-01-0.379D-01-0.299D+00 0.743D-02 0.129D+01
 Coeff:     -0.340D-03 0.479D-03-0.123D-02-0.295D-02-0.191D-03-0.222D-01
 Coeff:      0.497D-01 0.116D-01-0.379D-01-0.299D+00 0.743D-02 0.129D+01
 Gap=     0.364 Goal=   None    Shift=    0.000
 Gap=     0.118 Goal=   None    Shift=    0.000
 RMSDP=1.56D-05 MaxDP=1.62D-03 DE=-1.95D-05 OVMax= 6.82D-03

 Cycle  13  Pass 1  IDiag  1:
 RMSU=  3.29D-06    CP:  9.98D-01  2.59D+00  9.01D-01  8.61D-01  2.00D+00
                    CP:  2.41D+00  2.66D+00  2.40D+00  2.49D+00  3.00D+00
                    CP:  2.88D+00  2.25D+00
 E= -1905.96359901197     Delta-E=       -0.000019762037 Rises=F Damp=F
 DIIS: error= 7.34D-05 at cycle  13 NSaved=  13.
 NSaved=13 IEnMin=13 EnMin= -1905.96359901197     IErMin=13 ErrMin= 7.34D-05
 ErrMax= 7.34D-05  0.00D+00 EMaxC= 1.00D-01 BMatC= 7.12D-06 BMatP= 5.77D-06
 IDIUse=1 WtCom= 1.00D+00 WtEn= 0.00D+00
 Coeff-Com:  0.457D-03-0.576D-03 0.136D-03-0.175D-03-0.302D-02-0.422D-01
 Coeff-Com:  0.511D-01 0.511D-01 0.508D-01-0.371D+00-0.342D+00 0.106D+01
 Coeff-Com:  0.543D+00
 Coeff:      0.457D-03-0.576D-03 0.136D-03-0.175D-03-0.302D-02-0.422D-01
 Coeff:      0.511D-01 0.511D-01 0.508D-01-0.371D+00-0.342D+00 0.106D+01
 Coeff:      0.543D+00
 Gap=     0.364 Goal=   None    Shift=    0.000
 Gap=     0.118 Goal=   None    Shift=    0.000
 RMSDP=9.03D-06 MaxDP=8.36D-04 DE=-1.98D-05 OVMax= 4.17D-03

 Cycle  14  Pass 1  IDiag  1:
 RMSU=  6.15D-06    CP:  9.98D-01  2.59D+00  9.00D-01  8.62D-01  2.00D+00
                    CP:  2.42D+00  2.68D+00  2.49D+00  2.65D+00  3.00D+00
                    CP:  3.00D+00  3.00D+00  1.81D+00
 E= -1905.96360964349     Delta-E=       -0.000010631524 Rises=F Damp=F
 DIIS: error= 7.83D-05 at cycle  14 NSaved=  14.
 NSaved=14 IEnMin=14 EnMin= -1905.96360964349     IErMin=13 ErrMin= 7.34D-05
 ErrMax= 7.83D-05  0.00D+00 EMaxC= 1.00D-01 BMatC= 5.34D-06 BMatP= 5.77D-06
 IDIUse=1 WtCom= 1.00D+00 WtEn= 0.00D+00
 Coeff-Com:  0.120D-02-0.161D-02 0.150D-02 0.858D-03 0.217D-02-0.245D-01
 Coeff-Com:  0.236D-01-0.200D-01 0.122D+00-0.623D-01-0.289D+00 0.487D-01
 Coeff-Com: -0.635D+00 0.183D+01
 Coeff:      0.120D-02-0.161D-02 0.150D-02 0.858D-03 0.217D-02-0.245D-01
 Coeff:      0.236D-01-0.200D-01 0.122D+00-0.623D-01-0.289D+00 0.487D-01
 Coeff:     -0.635D+00 0.183D+01
 Gap=     0.364 Goal=   None    Shift=    0.000
 Gap=     0.118 Goal=   None    Shift=    0.000
 RMSDP=1.84D-05 MaxDP=1.82D-03 DE=-1.06D-05 OVMax= 9.40D-03

 Cycle  15  Pass 1  IDiag  1:
 RMSU=  7.26D-06    CP:  9.98D-01  2.59D+00  8.99D-01  8.63D-01  2.00D+00
                    CP:  2.43D+00  2.70D+00  2.65D+00  2.93D+00  3.00D+00
                    CP:  3.00D+00  3.00D+00  3.00D+00  3.00D+00
 E= -1905.96362913206     Delta-E=       -0.000019488566 Rises=F Damp=F
 DIIS: error= 7.32D-05 at cycle  15 NSaved=  15.
 NSaved=15 IEnMin=15 EnMin= -1905.96362913206     IErMin=15 ErrMin= 7.32D-05
 ErrMax= 7.32D-05  0.00D+00 EMaxC= 1.00D-01 BMatC= 5.55D-06 BMatP= 5.34D-06
 IDIUse=1 WtCom= 1.00D+00 WtEn= 0.00D+00
 Coeff-Com:  0.694D-03-0.939D-03 0.942D-03-0.555D-03 0.580D-02-0.769D-02
 Coeff-Com:  0.150D-01-0.660D-01 0.852D-01 0.696D-01-0.978D-02-0.147D+00
 Coeff-Com: -0.136D+01 0.145D+01 0.968D+00
 Coeff:      0.694D-03-0.939D-03 0.942D-03-0.555D-03 0.580D-02-0.769D-02
 Coeff:      0.150D-01-0.660D-01 0.852D-01 0.696D-01-0.978D-02-0.147D+00
 Coeff:     -0.136D+01 0.145D+01 0.968D+00
 Gap=     0.363 Goal=   None    Shift=    0.000
 Gap=     0.118 Goal=   None    Shift=    0.000
 RMSDP=1.72D-05 MaxDP=1.74D-03 DE=-1.95D-05 OVMax= 9.16D-03

 Cycle  16  Pass 1  IDiag  1:
 RMSU=  1.16D-05    CP:  9.98D-01  2.59D+00  8.97D-01  8.63D-01  2.00D+00
                    CP:  2.45D+00  2.71D+00  2.79D+00  3.00D+00  3.00D+00
                    CP:  3.00D+00  3.00D+00  3.00D+00  3.00D+00  2.55D+00
 E= -1905.96364589227     Delta-E=       -0.000016760207 Rises=F Damp=F
 DIIS: error= 7.32D-05 at cycle  16 NSaved=  16.
 NSaved=16 IEnMin=16 EnMin= -1905.96364589227     IErMin=16 ErrMin= 7.32D-05
 ErrMax= 7.32D-05  0.00D+00 EMaxC= 1.00D-01 BMatC= 4.62D-06 BMatP= 5.34D-06
 IDIUse=1 WtCom= 1.00D+00 WtEn= 0.00D+00
 Coeff-Com: -0.314D-03 0.410D-03-0.392D-03-0.154D-02 0.490D-02-0.134D-01
 Coeff-Com:  0.271D-01-0.441D-01 0.174D-01-0.487D-01 0.178D+00 0.368D+00
 Coeff-Com: -0.821D+00-0.301D+00-0.301D+00 0.194D+01
 Coeff:     -0.314D-03 0.410D-03-0.392D-03-0.154D-02 0.490D-02-0.134D-01
 Coeff:      0.271D-01-0.441D-01 0.174D-01-0.487D-01 0.178D+00 0.368D+00
 Coeff:     -0.821D+00-0.301D+00-0.301D+00 0.194D+01
 Gap=     0.363 Goal=   None    Shift=    0.000
 Gap=     0.118 Goal=   None    Shift=    0.000
 RMSDP=2.93D-05 MaxDP=3.12D-03 DE=-1.68D-05 OVMax= 1.64D-02

 Cycle  17  Pass 1  IDiag  1:
 RMSU=  1.69D-05    CP:  9.98D-01  2.59D+00  8.94D-01  8.65D-01  2.01D+00
                    CP:  2.46D+00  2.73D+00  3.00D+00  3.00D+00  3.00D+00
                    CP:  3.00D+00  3.00D+00  3.00D+00  3.00D+00  3.00D+00
                    CP:  2.68D+00
 E= -1905.96367187366     Delta-E=       -0.000025981392 Rises=F Damp=F
 DIIS: error= 6.87D-05 at cycle  17 NSaved=  17.
 NSaved=17 IEnMin=17 EnMin= -1905.96367187366     IErMin=17 ErrMin= 6.87D-05
 ErrMax= 6.87D-05  0.00D+00 EMaxC= 1.00D-01 BMatC= 4.21D-06 BMatP= 4.62D-06
 IDIUse=1 WtCom= 1.00D+00 WtEn= 0.00D+00
 Coeff-Com:  0.882D-04-0.115D-03-0.980D-04-0.953D-04 0.937D-03-0.299D-01
 Coeff-Com:  0.411D-01 0.122D-02 0.435D-01-0.214D+00-0.778D-01 0.590D+00
 Coeff-Com:  0.288D+00-0.331D+00-0.148D+01 0.426D+00 0.174D+01
 Coeff:      0.882D-04-0.115D-03-0.980D-04-0.953D-04 0.937D-03-0.299D-01
 Coeff:      0.411D-01 0.122D-02 0.435D-01-0.214D+00-0.778D-01 0.590D+00
 Coeff:      0.288D+00-0.331D+00-0.148D+01 0.426D+00 0.174D+01
 Gap=     0.362 Goal=   None    Shift=    0.000
 Gap=     0.119 Goal=   None    Shift=    0.000
 RMSDP=3.42D-05 MaxDP=3.86D-03 DE=-2.60D-05 OVMax= 1.99D-02

 Cycle  18  Pass 1  IDiag  1:
 RMSU=  1.99D-05    CP:  9.98D-01  2.59D+00  8.91D-01  8.68D-01  2.01D+00
                    CP:  2.48D+00  2.73D+00  3.00D+00  3.00D+00  3.00D+00
                    CP:  3.00D+00  3.00D+00  3.00D+00  3.00D+00  3.00D+00
                    CP:  3.00D+00  2.44D+00
 E= -1905.96369893703     Delta-E=       -0.000027063370 Rises=F Damp=F
 DIIS: error= 6.77D-05 at cycle  18 NSaved=  18.
 NSaved=18 IEnMin=18 EnMin= -1905.96369893703     IErMin=18 ErrMin= 6.77D-05
 ErrMax= 6.77D-05  0.00D+00 EMaxC= 1.00D-01 BMatC= 3.72D-06 BMatP= 4.21D-06
 IDIUse=1 WtCom= 1.00D+00 WtEn= 0.00D+00
 Coeff-Com:  0.625D-03-0.834D-03 0.520D-03 0.215D-03 0.169D-02-0.226D-01
 Coeff-Com:  0.357D-01-0.114D-01 0.734D-01-0.148D+00-0.169D+00 0.280D+00
 Coeff-Com:  0.256D+00 0.440D+00-0.834D+00-0.947D+00 0.779D+00 0.127D+01
 Coeff:      0.625D-03-0.834D-03 0.520D-03 0.215D-03 0.169D-02-0.226D-01
 Coeff:      0.357D-01-0.114D-01 0.734D-01-0.148D+00-0.169D+00 0.280D+00
 Coeff:      0.256D+00 0.440D+00-0.834D+00-0.947D+00 0.779D+00 0.127D+01
 Gap=     0.362 Goal=   None    Shift=    0.000
 Gap=     0.119 Goal=   None    Shift=    0.000
 RMSDP=3.19D-05 MaxDP=3.82D-03 DE=-2.71D-05 OVMax= 1.91D-02

 Cycle  19  Pass 1  IDiag  1:
 RMSU=  1.40D-05    CP:  9.98D-01  2.59D+00  8.87D-01  8.69D-01  2.00D+00
                    CP:  2.49D+00  2.73D+00  3.00D+00  3.00D+00  3.00D+00
                    CP:  3.00D+00  3.00D+00  3.00D+00  3.00D+00  3.00D+00
                    CP:  3.00D+00  3.00D+00  2.07D+00
 E= -1905.96372150825     Delta-E=       -0.000022571226 Rises=F Damp=F
 DIIS: error= 6.35D-05 at cycle  19 NSaved=  19.
 NSaved=19 IEnMin=19 EnMin= -1905.96372150825     IErMin=19 ErrMin= 6.35D-05
 ErrMax= 6.35D-05  0.00D+00 EMaxC= 1.00D-01 BMatC= 3.02D-06 BMatP= 3.72D-06
 IDIUse=1 WtCom= 1.00D+00 WtEn= 0.00D+00
 Coeff-Com:  0.652D-03-0.874D-03 0.764D-03-0.517D-03 0.387D-02-0.998D-02
 Coeff-Com:  0.172D-01-0.382D-01 0.627D-01 0.473D-02-0.197D-01-0.753D-01
 Coeff-Com: -0.553D+00 0.722D+00 0.597D+00-0.372D+00-0.119D+01 0.301D+00
 Coeff-Com:  0.156D+01
 Coeff:      0.652D-03-0.874D-03 0.764D-03-0.517D-03 0.387D-02-0.998D-02
 Coeff:      0.172D-01-0.382D-01 0.627D-01 0.473D-02-0.197D-01-0.753D-01
 Coeff:     -0.553D+00 0.722D+00 0.597D+00-0.372D+00-0.119D+01 0.301D+00
 Coeff:      0.156D+01
 Gap=     0.361 Goal=   None    Shift=    0.000
 Gap=     0.119 Goal=   None    Shift=    0.000
 RMSDP=3.24D-05 MaxDP=4.09D-03 DE=-2.26D-05 OVMax= 1.99D-02

 Cycle  20  Pass 1  IDiag  1:
 RMSU=  3.47D-06    CP:  9.98D-01  2.59D+00  8.82D-01  8.71D-01  2.00D+00
                    CP:  2.50D+00  2.72D+00  3.00D+00  3.00D+00  3.00D+00
                    CP:  3.00D+00  3.00D+00  3.00D+00  3.00D+00  3.00D+00
                    CP:  3.00D+00  3.00D+00  3.00D+00  2.71D+00
 E= -1905.96374207587     Delta-E=       -0.000020567620 Rises=F Damp=F
 DIIS: error= 5.63D-05 at cycle  20 NSaved=  20.
 NSaved=20 IEnMin=20 EnMin= -1905.96374207587     IErMin=20 ErrMin= 5.63D-05
 ErrMax= 5.63D-05  0.00D+00 EMaxC= 1.00D-01 BMatC= 2.23D-06 BMatP= 3.02D-06
 IDIUse=1 WtCom= 1.00D+00 WtEn= 0.00D+00
 Coeff-Com: -0.286D-04 0.358D-04 0.275D-03-0.493D-03 0.466D-02-0.369D-02
 Coeff-Com:  0.502D-02-0.372D-01 0.179D-01 0.530D-01 0.141D+00-0.484D-01
 Coeff-Com: -0.784D+00 0.130D+00 0.555D+00 0.938D+00-0.897D+00-0.112D+01
 Coeff-Com: -0.459D-01 0.209D+01
 Coeff:     -0.286D-04 0.358D-04 0.275D-03-0.493D-03 0.466D-02-0.369D-02
 Coeff:      0.502D-02-0.372D-01 0.179D-01 0.530D-01 0.141D+00-0.484D-01
 Coeff:     -0.784D+00 0.130D+00 0.555D+00 0.938D+00-0.897D+00-0.112D+01
 Coeff:     -0.459D-01 0.209D+01
 Gap=     0.359 Goal=   None    Shift=    0.000
 Gap=     0.119 Goal=   None    Shift=    0.000
 RMSDP=5.14D-05 MaxDP=6.56D-03 DE=-2.06D-05 OVMax= 3.19D-02

 Cycle  21  Pass 1  IDiag  1:
 Restarting incremental Fock formation.
 E= -1905.96376820195     Delta-E=       -0.000026126072 Rises=F Damp=F
 DIIS: error= 3.42D-05 at cycle  21 NSaved=  20.
 NSaved=20 IEnMin=20 EnMin= -1905.96376820195     IErMin=20 ErrMin= 3.42D-05
 ErrMax= 3.42D-05  0.00D+00 EMaxC= 1.00D-01 BMatC= 1.30D-06 BMatP= 2.23D-06
 IDIUse=1 WtCom= 1.00D+00 WtEn= 0.00D+00
 Coeff-Com: -0.317D-05 0.433D-03 0.614D-03 0.349D-02-0.102D-01 0.420D-02
 Coeff-Com: -0.114D-01 0.151D-01-0.598D-03 0.723D-01 0.111D+00-0.405D+00
 Coeff-Com: -0.883D-01-0.742D-01 0.923D+00 0.160D+00-0.925D+00-0.115D+01
 Coeff-Com:  0.172D+01 0.653D+00
 Coeff:     -0.317D-05 0.433D-03 0.614D-03 0.349D-02-0.102D-01 0.420D-02
 Coeff:     -0.114D-01 0.151D-01-0.598D-03 0.723D-01 0.111D+00-0.405D+00
 Coeff:     -0.883D-01-0.742D-01 0.923D+00 0.160D+00-0.925D+00-0.115D+01
 Coeff:      0.172D+01 0.653D+00
 Gap=     0.359 Goal=   None    Shift=    0.000
 Gap=     0.119 Goal=   None    Shift=    0.000
 RMSDP=9.65D-06 MaxDP=1.29D-03 DE=-2.61D-05 OVMax= 5.68D-03

 Cycle  22  Pass 1  IDiag  1:
 RMSU=  9.65D-06    CP:  1.00D+00
 E= -1905.96377262848     Delta-E=       -0.000004426534 Rises=F Damp=F
 DIIS: error= 3.37D-05 at cycle  22 NSaved=  20.
 NSaved=20 IEnMin=20 EnMin= -1905.96377262848     IErMin=20 ErrMin= 3.37D-05
 ErrMax= 3.37D-05  0.00D+00 EMaxC= 1.00D-01 BMatC= 1.26D-06 BMatP= 1.30D-06
 IDIUse=1 WtCom= 1.00D+00 WtEn= 0.00D+00
 Coeff-Com:  0.108D-03 0.110D-02-0.616D-03-0.174D-01 0.117D-01 0.222D-01
 Coeff-Com:  0.126D-01-0.110D+00-0.732D-01 0.345D+00 0.364D+00-0.319D+00
 Coeff-Com: -0.110D+01 0.204D+00 0.145D+01-0.397D-01-0.181D+01 0.366D+00
 Coeff-Com:  0.817D+00 0.885D+00
 Coeff:      0.108D-03 0.110D-02-0.616D-03-0.174D-01 0.117D-01 0.222D-01
 Coeff:      0.126D-01-0.110D+00-0.732D-01 0.345D+00 0.364D+00-0.319D+00
 Coeff:     -0.110D+01 0.204D+00 0.145D+01-0.397D-01-0.181D+01 0.366D+00
 Coeff:      0.817D+00 0.885D+00
 Gap=     0.357 Goal=   None    Shift=    0.000
 Gap=     0.120 Goal=   None    Shift=    0.000
 RMSDP=4.48D-05 MaxDP=5.67D-03 DE=-4.43D-06 OVMax= 2.79D-02

 Cycle  23  Pass 1  IDiag  1:
 RMSU=  2.92D-05    CP:  1.00D+00  3.00D+00
 E= -1905.96378641564     Delta-E=       -0.000013787162 Rises=F Damp=F
 DIIS: error= 2.42D-05 at cycle  23 NSaved=  20.
 NSaved=20 IEnMin=20 EnMin= -1905.96378641564     IErMin=20 ErrMin= 2.42D-05
 ErrMax= 2.42D-05  0.00D+00 EMaxC= 1.00D-01 BMatC= 8.83D-07 BMatP= 1.26D-06
 IDIUse=1 WtCom= 1.00D+00 WtEn= 0.00D+00
 Coeff-Com:  0.167D-03 0.853D-03-0.895D-03 0.783D-02 0.338D-02 0.861D-03
 Coeff-Com: -0.401D-01-0.617D-01 0.140D+00 0.238D+00 0.281D-01-0.525D+00
 Coeff-Com: -0.478D+00 0.653D+00 0.749D+00-0.328D+00-0.907D+00-0.460D+00
 Coeff-Com:  0.108D+01 0.897D+00
 Coeff:      0.167D-03 0.853D-03-0.895D-03 0.783D-02 0.338D-02 0.861D-03
 Coeff:     -0.401D-01-0.617D-01 0.140D+00 0.238D+00 0.281D-01-0.525D+00
 Coeff:     -0.478D+00 0.653D+00 0.749D+00-0.328D+00-0.907D+00-0.460D+00
 Coeff:      0.108D+01 0.897D+00
 Gap=     0.356 Goal=   None    Shift=    0.000
 Gap=     0.120 Goal=   None    Shift=    0.000
 RMSDP=1.39D-05 MaxDP=1.83D-03 DE=-1.38D-05 OVMax= 8.55D-03

 Cycle  24  Pass 1  IDiag  1:
 RMSU=  8.77D-06    CP:  1.00D+00  3.00D+00  1.37D+00
 E= -1905.96378995815     Delta-E=       -0.000003542507 Rises=F Damp=F
 DIIS: error= 1.21D-05 at cycle  24 NSaved=  20.
 NSaved=20 IEnMin=20 EnMin= -1905.96378995815     IErMin=20 ErrMin= 1.21D-05
 ErrMax= 1.21D-05  0.00D+00 EMaxC= 1.00D-01 BMatC= 2.46D-07 BMatP= 8.83D-07
 IDIUse=1 WtCom= 1.00D+00 WtEn= 0.00D+00
 Coeff-Com: -0.887D-04-0.341D-02 0.428D-02 0.103D-01-0.119D-03-0.378D-01
 Coeff-Com: -0.521D-01 0.855D-01 0.104D+00 0.245D-01-0.104D+00-0.227D+00
 Coeff-Com: -0.114D+00 0.382D+00 0.376D+00-0.254D+00-0.789D+00 0.468D-01
 Coeff-Com:  0.233D+00 0.132D+01
 Coeff:     -0.887D-04-0.341D-02 0.428D-02 0.103D-01-0.119D-03-0.378D-01
 Coeff:     -0.521D-01 0.855D-01 0.104D+00 0.245D-01-0.104D+00-0.227D+00
 Coeff:     -0.114D+00 0.382D+00 0.376D+00-0.254D+00-0.789D+00 0.468D-01
 Coeff:      0.233D+00 0.132D+01
 Gap=     0.355 Goal=   None    Shift=    0.000
 Gap=     0.120 Goal=   None    Shift=    0.000
 RMSDP=2.06D-05 MaxDP=2.63D-03 DE=-3.54D-06 OVMax= 1.29D-02

 Cycle  25  Pass 1  IDiag  1:
 RMSU=  1.38D-06    CP:  1.00D+00  3.00D+00  1.99D+00  2.09D+00
 E= -1905.96379296798     Delta-E=       -0.000003009834 Rises=F Damp=F
 DIIS: error= 8.48D-06 at cycle  25 NSaved=  20.
 NSaved=20 IEnMin=20 EnMin= -1905.96379296798     IErMin=20 ErrMin= 8.48D-06
 ErrMax= 8.48D-06  0.00D+00 EMaxC= 1.00D-01 BMatC= 1.21D-07 BMatP= 2.46D-07
 IDIUse=1 WtCom= 1.00D+00 WtEn= 0.00D+00
 Coeff-Com: -0.353D-02-0.188D-03 0.461D-02 0.199D-02 0.828D-03-0.818D-02
 Coeff-Com: -0.577D-02-0.106D+00 0.619D-01 0.173D+00 0.158D+00-0.421D+00
 Coeff-Com: -0.176D+00 0.213D+00 0.572D+00-0.169D+00-0.508D+00-0.594D+00
 Coeff-Com:  0.511D+00 0.130D+01
 Coeff:     -0.353D-02-0.188D-03 0.461D-02 0.199D-02 0.828D-03-0.818D-02
 Coeff:     -0.577D-02-0.106D+00 0.619D-01 0.173D+00 0.158D+00-0.421D+00
 Coeff:     -0.176D+00 0.213D+00 0.572D+00-0.169D+00-0.508D+00-0.594D+00
 Coeff:      0.511D+00 0.130D+01
 Gap=     0.355 Goal=   None    Shift=    0.000
 Gap=     0.120 Goal=   None    Shift=    0.000
 RMSDP=1.12D-05 MaxDP=1.40D-03 DE=-3.01D-06 OVMax= 6.83D-03

 Cycle  26  Pass 1  IDiag  1:
 RMSU=  9.63D-07    CP:  1.00D+00  3.00D+00  2.28D+00  2.88D+00  2.06D+00
 E= -1905.96379396086     Delta-E=       -0.000000992875 Rises=F Damp=F
 DIIS: error= 4.60D-06 at cycle  26 NSaved=  20.
 NSaved=20 IEnMin=20 EnMin= -1905.96379396086     IErMin=20 ErrMin= 4.60D-06
 ErrMax= 4.60D-06  0.00D+00 EMaxC= 1.00D-01 BMatC= 4.60D-08 BMatP= 1.21D-07
 IDIUse=1 WtCom= 1.00D+00 WtEn= 0.00D+00
 Coeff-Com:  0.498D-03-0.494D-02-0.104D-02 0.137D-01 0.120D-01-0.883D-02
 Coeff-Com: -0.110D+00 0.396D-01 0.337D-01 0.210D+00-0.774D-01-0.210D+00
 Coeff-Com: -0.154D+00 0.264D+00 0.344D+00-0.183D+00-0.208D+00-0.468D+00
 Coeff-Com:  0.397D+00 0.111D+01
 Coeff:      0.498D-03-0.494D-02-0.104D-02 0.137D-01 0.120D-01-0.883D-02
 Coeff:     -0.110D+00 0.396D-01 0.337D-01 0.210D+00-0.774D-01-0.210D+00
 Coeff:     -0.154D+00 0.264D+00 0.344D+00-0.183D+00-0.208D+00-0.468D+00
 Coeff:      0.397D+00 0.111D+01
 Gap=     0.355 Goal=   None    Shift=    0.000
 Gap=     0.120 Goal=   None    Shift=    0.000
 RMSDP=6.17D-06 MaxDP=7.61D-04 DE=-9.93D-07 OVMax= 3.76D-03

 Cycle  27  Pass 1  IDiag  1:
 RMSU=  2.33D-06    CP:  1.00D+00  3.00D+00  2.46D+00  3.00D+00  2.75D+00
                    CP:  1.66D+00
 E= -1905.96379418858     Delta-E=       -0.000000227719 Rises=F Damp=F
 DIIS: error= 3.47D-06 at cycle  27 NSaved=  20.
 NSaved=20 IEnMin=20 EnMin= -1905.96379418858     IErMin=20 ErrMin= 3.47D-06
 ErrMax= 3.47D-06  0.00D+00 EMaxC= 1.00D-01 BMatC= 1.42D-08 BMatP= 4.60D-08
 IDIUse=1 WtCom= 1.00D+00 WtEn= 0.00D+00
 Coeff-Com: -0.300D-02-0.112D-03 0.677D-02 0.121D-01 0.119D-01-0.512D-01
 Coeff-Com: -0.186D-01-0.216D-01 0.134D+00 0.162D-01-0.937D-01-0.790D-01
 Coeff-Com:  0.585D-01 0.133D+00-0.523D-02 0.524D-01-0.217D+00-0.140D+00
 Coeff-Com:  0.175D+00 0.103D+01
 Coeff:     -0.300D-02-0.112D-03 0.677D-02 0.121D-01 0.119D-01-0.512D-01
 Coeff:     -0.186D-01-0.216D-01 0.134D+00 0.162D-01-0.937D-01-0.790D-01
 Coeff:      0.585D-01 0.133D+00-0.523D-02 0.524D-01-0.217D+00-0.140D+00
 Coeff:      0.175D+00 0.103D+01
 Gap=     0.355 Goal=   None    Shift=    0.000
 Gap=     0.120 Goal=   None    Shift=    0.000
 RMSDP=2.61D-06 MaxDP=2.87D-04 DE=-2.28D-07 OVMax= 1.48D-03

 Cycle  28  Pass 1  IDiag  1:
 RMSU=  3.90D-07    CP:  1.00D+00  3.00D+00  2.37D+00  3.00D+00  3.00D+00
                    CP:  2.26D+00  9.15D-01
 E= -1905.96379423018     Delta-E=       -0.000000041601 Rises=F Damp=F
 DIIS: error= 3.15D-06 at cycle  28 NSaved=  20.
 NSaved=20 IEnMin=20 EnMin= -1905.96379423018     IErMin=20 ErrMin= 3.15D-06
 ErrMax= 3.15D-06  0.00D+00 EMaxC= 1.00D-01 BMatC= 3.77D-08 BMatP= 1.42D-08
 IDIUse=1 WtCom= 1.00D+00 WtEn= 0.00D+00
 Coeff-Com:  0.215D-02-0.282D-02-0.695D-02 0.130D-01 0.369D-02 0.863D-02
 Coeff-Com: -0.321D-01-0.166D-01 0.339D-01 0.337D-01 0.422D-01-0.123D+00
 Coeff-Com: -0.169D-01-0.603D-01 0.184D+00 0.125D+00-0.204D+00-0.492D+00
 Coeff-Com:  0.335D+00 0.117D+01
 Coeff:      0.215D-02-0.282D-02-0.695D-02 0.130D-01 0.369D-02 0.863D-02
 Coeff:     -0.321D-01-0.166D-01 0.339D-01 0.337D-01 0.422D-01-0.123D+00
 Coeff:     -0.169D-01-0.603D-01 0.184D+00 0.125D+00-0.204D+00-0.492D+00
 Coeff:      0.335D+00 0.117D+01
 Gap=     0.355 Goal=   None    Shift=    0.000
 Gap=     0.120 Goal=   None    Shift=    0.000
 RMSDP=3.32D-06 MaxDP=4.00D-04 DE=-4.16D-08 OVMax= 2.02D-03

 Cycle  29  Pass 1  IDiag  1:
 RMSU=  5.06D-07    CP:  1.00D+00  3.00D+00  2.47D+00  3.00D+00  3.00D+00
                    CP:  2.56D+00  1.60D+00  1.61D+00
 E= -1905.96379429181     Delta-E=       -0.000000061633 Rises=F Damp=F
 DIIS: error= 2.18D-06 at cycle  29 NSaved=  20.
 NSaved=20 IEnMin=20 EnMin= -1905.96379429181     IErMin=20 ErrMin= 2.18D-06
 ErrMax= 2.18D-06  0.00D+00 EMaxC= 1.00D-01 BMatC= 4.92D-09 BMatP= 1.42D-08
 IDIUse=1 WtCom= 1.00D+00 WtEn= 0.00D+00
 Coeff-Com: -0.470D-03-0.172D-02-0.220D-02-0.138D-01 0.139D-01 0.493D-01
 Coeff-Com: -0.146D-01-0.571D-01-0.143D-01 0.805D-01 0.462D-01-0.740D-01
 Coeff-Com: -0.381D-01-0.753D-01 0.136D+00 0.807D-01-0.139D+00-0.498D+00
 Coeff-Com:  0.374D-01 0.148D+01
 Coeff:     -0.470D-03-0.172D-02-0.220D-02-0.138D-01 0.139D-01 0.493D-01
 Coeff:     -0.146D-01-0.571D-01-0.143D-01 0.805D-01 0.462D-01-0.740D-01
 Coeff:     -0.381D-01-0.753D-01 0.136D+00 0.807D-01-0.139D+00-0.498D+00
 Coeff:      0.374D-01 0.148D+01
 Gap=     0.355 Goal=   None    Shift=    0.000
 Gap=     0.120 Goal=   None    Shift=    0.000
 RMSDP=3.88D-06 MaxDP=4.33D-04 DE=-6.16D-08 OVMax= 2.20D-03

 Cycle  30  Pass 1  IDiag  1:
 RMSU=  3.00D-07    CP:  1.00D+00  3.00D+00  2.34D+00  3.00D+00  3.00D+00
                    CP:  3.00D+00  1.47D+00  3.00D+00  1.50D+00
 E= -1905.96379430652     Delta-E=       -0.000000014710 Rises=F Damp=F
 DIIS: error= 2.82D-06 at cycle  30 NSaved=  20.
 NSaved=20 IEnMin=20 EnMin= -1905.96379430652     IErMin=19 ErrMin= 2.18D-06
 ErrMax= 2.82D-06  0.00D+00 EMaxC= 1.00D-01 BMatC= 4.24D-08 BMatP= 4.92D-09
 IDIUse=1 WtCom= 1.00D+00 WtEn= 0.00D+00
 Coeff-Com:  0.171D-02-0.190D-02-0.273D-01 0.131D-01 0.570D-01 0.640D-02
 Coeff-Com: -0.750D-01-0.362D-01 0.655D-01 0.744D-01-0.311D-01-0.103D+00
 Coeff-Com: -0.877D-01 0.114D+00 0.184D+00 0.671D-01-0.608D+00-0.618D+00
 Coeff-Com:  0.119D+01 0.815D+00
 Coeff:      0.171D-02-0.190D-02-0.273D-01 0.131D-01 0.570D-01 0.640D-02
 Coeff:     -0.750D-01-0.362D-01 0.655D-01 0.744D-01-0.311D-01-0.103D+00
 Coeff:     -0.877D-01 0.114D+00 0.184D+00 0.671D-01-0.608D+00-0.618D+00
 Coeff:      0.119D+01 0.815D+00
 Gap=     0.355 Goal=   None    Shift=    0.000
 Gap=     0.120 Goal=   None    Shift=    0.000
 RMSDP=2.00D-06 MaxDP=2.32D-04 DE=-1.47D-08 OVMax= 1.20D-03

 Cycle  31  Pass 1  IDiag  1:
 RMSU=  3.36D-07    CP:  1.00D+00  3.00D+00  2.40D+00  3.00D+00  3.00D+00
                    CP:  3.00D+00  1.93D+00  3.00D+00  2.17D+00  1.73D+00
 E= -1905.96379434880     Delta-E=       -0.000000042278 Rises=F Damp=F
 DIIS: error= 9.04D-07 at cycle  31 NSaved=  20.
 NSaved=20 IEnMin=20 EnMin= -1905.96379434880     IErMin=20 ErrMin= 9.04D-07
 ErrMax= 9.04D-07  0.00D+00 EMaxC= 1.00D-01 BMatC= 3.66D-09 BMatP= 4.92D-09
 IDIUse=1 WtCom= 1.00D+00 WtEn= 0.00D+00
 Coeff-Com:  0.558D-02-0.654D-02-0.405D-02-0.607D-02 0.190D-01 0.185D-01
 Coeff-Com: -0.261D-01-0.324D-01 0.398D-01 0.252D-01-0.119D-01-0.172D-01
 Coeff-Com: -0.572D-01 0.340D-01 0.147D+00 0.153D-01-0.347D+00-0.105D-01
 Coeff-Com: -0.150D+00 0.136D+01
 Coeff:      0.558D-02-0.654D-02-0.405D-02-0.607D-02 0.190D-01 0.185D-01
 Coeff:     -0.261D-01-0.324D-01 0.398D-01 0.252D-01-0.119D-01-0.172D-01
 Coeff:     -0.572D-01 0.340D-01 0.147D+00 0.153D-01-0.347D+00-0.105D-01
 Coeff:     -0.150D+00 0.136D+01
 Gap=     0.355 Goal=   None    Shift=    0.000
 Gap=     0.120 Goal=   None    Shift=    0.000
 RMSDP=6.46D-07 MaxDP=7.27D-05 DE=-4.23D-08 OVMax= 3.21D-04

 Cycle  32  Pass 1  IDiag  1:
 RMSU=  5.43D-08    CP:  1.00D+00  3.00D+00  2.39D+00  3.00D+00  3.00D+00
                    CP:  3.00D+00  2.13D+00  3.00D+00  2.54D+00  2.59D+00
                    CP:  1.74D+00
 E= -1905.96379435511     Delta-E=       -0.000000006310 Rises=F Damp=F
 DIIS: error= 7.17D-07 at cycle  32 NSaved=  20.
 NSaved=20 IEnMin=20 EnMin= -1905.96379435511     IErMin=20 ErrMin= 7.17D-07
 ErrMax= 7.17D-07  0.00D+00 EMaxC= 1.00D-01 BMatC= 3.51D-09 BMatP= 3.66D-09
 IDIUse=1 WtCom= 1.00D+00 WtEn= 0.00D+00
 Coeff-Com: -0.223D-02 0.143D-02-0.113D-01 0.222D-02 0.260D-01-0.499D-02
 Coeff-Com: -0.285D-01-0.745D-03 0.294D-01 0.961D-02 0.239D-01-0.701D-01
 Coeff-Com: -0.408D-01 0.639D-01 0.165D+00 0.306D-02-0.268D+00-0.470D+00
 Coeff-Com:  0.678D+00 0.894D+00
 Coeff:     -0.223D-02 0.143D-02-0.113D-01 0.222D-02 0.260D-01-0.499D-02
 Coeff:     -0.285D-01-0.745D-03 0.294D-01 0.961D-02 0.239D-01-0.701D-01
 Coeff:     -0.408D-01 0.639D-01 0.165D+00 0.306D-02-0.268D+00-0.470D+00
 Coeff:      0.678D+00 0.894D+00
 Gap=     0.355 Goal=   None    Shift=    0.000
 Gap=     0.120 Goal=   None    Shift=    0.000
 RMSDP=1.27D-06 MaxDP=1.48D-04 DE=-6.31D-09 OVMax= 7.88D-04

 Cycle  33  Pass 1  IDiag  1:
 RMSU=  4.04D-08    CP:  1.00D+00  3.00D+00  2.43D+00  3.00D+00  3.00D+00
                    CP:  3.00D+00  2.35D+00  3.00D+00  2.87D+00  2.97D+00
                    CP:  2.01D+00  1.33D+00
 E= -1905.96379435851     Delta-E=       -0.000000003399 Rises=F Damp=F
 DIIS: error= 5.14D-07 at cycle  33 NSaved=  20.
 NSaved=20 IEnMin=20 EnMin= -1905.96379435851     IErMin=20 ErrMin= 5.14D-07
 ErrMax= 5.14D-07  0.00D+00 EMaxC= 1.00D-01 BMatC= 6.20D-10 BMatP= 3.51D-09
 IDIUse=1 WtCom= 1.00D+00 WtEn= 0.00D+00
 Coeff-Com:  0.173D-02-0.192D-02-0.265D-02 0.903D-02 0.227D-02-0.995D-02
 Coeff-Com: -0.276D-02 0.279D-02 0.150D-01 0.944D-02-0.249D-01-0.232D-01
 Coeff-Com:  0.119D-01 0.740D-01 0.388D-01-0.996D-01-0.146D+00 0.664D-01
 Coeff-Com:  0.359D+00 0.721D+00
 Coeff:      0.173D-02-0.192D-02-0.265D-02 0.903D-02 0.227D-02-0.995D-02
 Coeff:     -0.276D-02 0.279D-02 0.150D-01 0.944D-02-0.249D-01-0.232D-01
 Coeff:      0.119D-01 0.740D-01 0.388D-01-0.996D-01-0.146D+00 0.664D-01
 Coeff:      0.359D+00 0.721D+00
 Gap=     0.355 Goal=   None    Shift=    0.000
 Gap=     0.120 Goal=   None    Shift=    0.000
 RMSDP=8.81D-07 MaxDP=1.05D-04 DE=-3.40D-09 OVMax= 5.34D-04

 Cycle  34  Pass 1  IDiag  1:
 RMSU=  2.88D-08    CP:  1.00D+00  3.00D+00  2.40D+00  3.00D+00  3.00D+00
                    CP:  3.00D+00  2.27D+00  3.00D+00  2.80D+00  3.00D+00
                    CP:  2.07D+00  1.67D+00  6.60D-01
 E= -1905.96379435834     Delta-E=        0.000000000174 Rises=F Damp=F
 DIIS: error= 4.85D-07 at cycle  34 NSaved=  20.
 NSaved=20 IEnMin=19 EnMin= -1905.96379435851     IErMin=20 ErrMin= 4.85D-07
 ErrMax= 4.85D-07  0.00D+00 EMaxC= 1.00D-01 BMatC= 1.34D-09 BMatP= 6.20D-10
 IDIUse=1 WtCom= 1.00D+00 WtEn= 0.00D+00
 Coeff-Com:  0.377D-02-0.345D-02-0.597D-02 0.507D-02 0.101D-01-0.797D-02
 Coeff-Com: -0.730D-02-0.374D-02 0.101D-01 0.104D-01-0.580D-02-0.248D-01
 Coeff-Com: -0.600D-03 0.430D-01 0.163D-01-0.268D-01-0.135D+00-0.158D-01
 Coeff-Com:  0.428D+00 0.711D+00
 Coeff:      0.377D-02-0.345D-02-0.597D-02 0.507D-02 0.101D-01-0.797D-02
 Coeff:     -0.730D-02-0.374D-02 0.101D-01 0.104D-01-0.580D-02-0.248D-01
 Coeff:     -0.600D-03 0.430D-01 0.163D-01-0.268D-01-0.135D+00-0.158D-01
 Coeff:      0.428D+00 0.711D+00
 Gap=     0.355 Goal=   None    Shift=    0.000
 Gap=     0.120 Goal=   None    Shift=    0.000
 RMSDP=4.73D-07 MaxDP=5.59D-05 DE= 1.74D-10 OVMax= 2.95D-04

 Cycle  35  Pass 1  IDiag  1:
 RMSU=  1.30D-08    CP:  1.00D+00  3.00D+00  2.41D+00  3.00D+00  3.00D+00
                    CP:  3.00D+00  2.34D+00  3.00D+00  2.89D+00  3.00D+00
                    CP:  2.13D+00  1.73D+00  9.34D-01  1.20D+00
 E= -1905.96379435944     Delta-E=       -0.000000001105 Rises=F Damp=F
 DIIS: error= 4.32D-08 at cycle  35 NSaved=  20.
 NSaved=20 IEnMin=20 EnMin= -1905.96379435944     IErMin=20 ErrMin= 4.32D-08
 ErrMax= 4.32D-08  0.00D+00 EMaxC= 1.00D-01 BMatC= 1.01D-11 BMatP= 6.20D-10
 IDIUse=1 WtCom= 1.00D+00 WtEn= 0.00D+00
 Coeff-Com:  0.279D-03 0.135D-03 0.743D-03 0.530D-03-0.211D-02-0.131D-02
 Coeff-Com: -0.939D-03 0.519D-02 0.165D-02-0.350D-02-0.932D-02 0.233D-02
 Coeff-Com:  0.198D-01 0.405D-02-0.164D-01-0.459D-01-0.288D-01 0.131D+00
 Coeff-Com:  0.275D+00 0.668D+00
 Coeff:      0.279D-03 0.135D-03 0.743D-03 0.530D-03-0.211D-02-0.131D-02
 Coeff:     -0.939D-03 0.519D-02 0.165D-02-0.350D-02-0.932D-02 0.233D-02
 Coeff:      0.198D-01 0.405D-02-0.164D-01-0.459D-01-0.288D-01 0.131D+00
 Coeff:      0.275D+00 0.668D+00
 Gap=     0.355 Goal=   None    Shift=    0.000
 Gap=     0.120 Goal=   None    Shift=    0.000
 RMSDP=4.22D-08 MaxDP=4.59D-06 DE=-1.11D-09 OVMax= 2.31D-05

 Cycle  36  Pass 1  IDiag  1:
 RMSU=  3.25D-09    CP:  1.00D+00  3.00D+00  2.41D+00  3.00D+00  3.00D+00
                    CP:  3.00D+00  2.34D+00  3.00D+00  2.89D+00  3.00D+00
                    CP:  2.14D+00  1.79D+00  9.23D-01  1.34D+00  1.03D+00
 E= -1905.96379435940     Delta-E=        0.000000000040 Rises=F Damp=F
 DIIS: error= 6.15D-08 at cycle  36 NSaved=  20.
 NSaved=20 IEnMin=19 EnMin= -1905.96379435944     IErMin=19 ErrMin= 4.32D-08
 ErrMax= 6.15D-08  0.00D+00 EMaxC= 1.00D-01 BMatC= 1.97D-11 BMatP= 1.01D-11
 IDIUse=1 WtCom= 1.00D+00 WtEn= 0.00D+00
 Coeff-Com: -0.186D-03-0.249D-03 0.558D-03 0.610D-03-0.415D-03-0.156D-02
 Coeff-Com:  0.114D-03 0.179D-02 0.131D-02-0.214D-02-0.696D-02-0.153D-03
 Coeff-Com:  0.139D-01 0.375D-02-0.774D-02-0.317D-01-0.459D-01-0.412D-01
 Coeff-Com:  0.346D+00 0.770D+00
 Coeff:     -0.186D-03-0.249D-03 0.558D-03 0.610D-03-0.415D-03-0.156D-02
 Coeff:      0.114D-03 0.179D-02 0.131D-02-0.214D-02-0.696D-02-0.153D-03
 Coeff:      0.139D-01 0.375D-02-0.774D-02-0.317D-01-0.459D-01-0.412D-01
 Coeff:      0.346D+00 0.770D+00
 Gap=     0.355 Goal=   None    Shift=    0.000
 Gap=     0.120 Goal=   None    Shift=    0.000
 RMSDP=5.68D-08 MaxDP=6.41D-06 DE= 4.00D-11 OVMax= 3.50D-05

 Cycle  37  Pass 1  IDiag  1:
 RMSU=  2.29D-09    CP:  1.00D+00  3.00D+00  2.41D+00  3.00D+00  3.00D+00
                    CP:  3.00D+00  2.34D+00  3.00D+00  2.91D+00  3.00D+00
                    CP:  2.15D+00  1.81D+00  9.63D-01  1.40D+00  1.18D+00
                    CP:  1.06D+00
 E= -1905.96379435928     Delta-E=        0.000000000122 Rises=F Damp=F
 DIIS: error= 1.73D-08 at cycle  37 NSaved=  20.
 NSaved=20 IEnMin=18 EnMin= -1905.96379435944     IErMin=20 ErrMin= 1.73D-08
 ErrMax= 1.73D-08  0.00D+00 EMaxC= 1.00D-01 BMatC= 1.40D-12 BMatP= 1.01D-11
 IDIUse=1 WtCom= 1.00D+00 WtEn= 0.00D+00
 Coeff-Com: -0.411D-03 0.317D-04 0.876D-03-0.153D-03 0.848D-03-0.140D-02
 Coeff-Com: -0.924D-03 0.565D-04 0.306D-02 0.210D-02-0.587D-02-0.301D-02
 Coeff-Com: -0.177D-02 0.248D-01 0.112D-01-0.703D-01-0.136D+00-0.458D-01
 Coeff-Com:  0.314D+00 0.909D+00
 Coeff:     -0.411D-03 0.317D-04 0.876D-03-0.153D-03 0.848D-03-0.140D-02
 Coeff:     -0.924D-03 0.565D-04 0.306D-02 0.210D-02-0.587D-02-0.301D-02
 Coeff:     -0.177D-02 0.248D-01 0.112D-01-0.703D-01-0.136D+00-0.458D-01
 Coeff:      0.314D+00 0.909D+00
 Gap=     0.355 Goal=   None    Shift=    0.000
 Gap=     0.120 Goal=   None    Shift=    0.000
 RMSDP=2.41D-08 MaxDP=2.74D-06 DE= 1.22D-10 OVMax= 1.38D-05

 Cycle  38  Pass 1  IDiag  1:
 RMSU=  1.34D-09    CP:  1.00D+00  3.00D+00  2.41D+00  3.00D+00  3.00D+00
                    CP:  3.00D+00  2.34D+00  3.00D+00  2.91D+00  3.00D+00
                    CP:  2.15D+00  1.83D+00  9.57D-01  1.49D+00  1.24D+00
                    CP:  1.30D+00  1.50D+00
 E= -1905.96379435943     Delta-E=       -0.000000000153 Rises=F Damp=F
 DIIS: error= 1.92D-08 at cycle  38 NSaved=  20.
 NSaved=20 IEnMin=17 EnMin= -1905.96379435944     IErMin=19 ErrMin= 1.73D-08
 ErrMax= 1.92D-08  0.00D+00 EMaxC= 1.00D-01 BMatC= 5.96D-13 BMatP= 1.40D-12
 IDIUse=1 WtCom= 1.00D+00 WtEn= 0.00D+00
 Coeff-Com: -0.518D-04-0.230D-03-0.313D-04 0.572D-03 0.446D-04-0.324D-03
 Coeff-Com: -0.875D-03 0.343D-03 0.368D-02-0.328D-03-0.560D-02-0.561D-02
 Coeff-Com:  0.135D-01 0.176D-01-0.146D-01-0.379D-01-0.120D+00-0.979D-01
 Coeff-Com:  0.214D+00 0.103D+01
 Coeff:     -0.518D-04-0.230D-03-0.313D-04 0.572D-03 0.446D-04-0.324D-03
 Coeff:     -0.875D-03 0.343D-03 0.368D-02-0.328D-03-0.560D-02-0.561D-02
 Coeff:      0.135D-01 0.176D-01-0.146D-01-0.379D-01-0.120D+00-0.979D-01
 Coeff:      0.214D+00 0.103D+01
 Gap=     0.355 Goal=   None    Shift=    0.000
 Gap=     0.120 Goal=   None    Shift=    0.000
 RMSDP=2.04D-08 MaxDP=2.52D-06 DE=-1.53D-10 OVMax= 1.26D-05

 Cycle  39  Pass 1  IDiag  1:
 RMSU=  1.74D-09    CP:  1.00D+00  3.00D+00  2.41D+00  3.00D+00  3.00D+00
                    CP:  3.00D+00  2.35D+00  3.00D+00  2.91D+00  3.00D+00
                    CP:  2.15D+00  1.84D+00  9.61D-01  1.46D+00  1.28D+00
                    CP:  1.54D+00  2.06D+00  1.23D+00
 E= -1905.96379435950     Delta-E=       -0.000000000070 Rises=F Damp=F
 DIIS: error= 1.07D-08 at cycle  39 NSaved=  20.
 NSaved=20 IEnMin=20 EnMin= -1905.96379435950     IErMin=20 ErrMin= 1.07D-08
 ErrMax= 1.07D-08  0.00D+00 EMaxC= 1.00D-01 BMatC= 5.36D-13 BMatP= 5.96D-13
 IDIUse=1 WtCom= 1.00D+00 WtEn= 0.00D+00
 Coeff-Com: -0.623D-05-0.178D-03 0.366D-03 0.496D-04-0.504D-04-0.482D-03
 Coeff-Com: -0.191D-03 0.158D-02 0.115D-02-0.244D-02-0.414D-02 0.156D-02
 Coeff-Com:  0.899D-02 0.448D-02 0.135D-01-0.446D-01-0.786D-01-0.182D+00
 Coeff-Com:  0.269D+00 0.101D+01
 Coeff:     -0.623D-05-0.178D-03 0.366D-03 0.496D-04-0.504D-04-0.482D-03
 Coeff:     -0.191D-03 0.158D-02 0.115D-02-0.244D-02-0.414D-02 0.156D-02
 Coeff:      0.899D-02 0.448D-02 0.135D-01-0.446D-01-0.786D-01-0.182D+00
 Coeff:      0.269D+00 0.101D+01
 Gap=     0.355 Goal=   None    Shift=    0.000
 Gap=     0.120 Goal=   None    Shift=    0.000
 RMSDP=1.60D-08 MaxDP=1.81D-06 DE=-7.00D-11 OVMax= 9.45D-06

 Cycle  40  Pass 1  IDiag  1:
 RMSU=  5.73D-10    CP:  1.00D+00  3.00D+00  2.41D+00  3.00D+00  3.00D+00
                    CP:  3.00D+00  2.35D+00  3.00D+00  2.91D+00  3.00D+00
                    CP:  2.15D+00  1.85D+00  9.54D-01  1.50D+00  1.30D+00
                    CP:  1.68D+00  2.26D+00  1.64D+00  9.98D-01
 E= -1905.96379435937     Delta-E=        0.000000000133 Rises=F Damp=F
 DIIS: error= 6.59D-09 at cycle  40 NSaved=  20.
 NSaved=20 IEnMin=19 EnMin= -1905.96379435950     IErMin=20 ErrMin= 6.59D-09
[...]
     2   Atom        0.017819     -0.004200     -0.013619
     3   Atom       -0.018929     -0.035214      0.054143
     4   Atom       -0.041550     -0.048173      0.089723
     5   Atom       -0.567803     -0.511993      1.079796
     6   Atom        0.013329      0.040808     -0.054137
     7   Atom       -0.003522      0.020780     -0.017258
     8   Atom       -0.188558     -0.164185      0.352743
     9   Atom       -0.018143     -0.009420      0.027562
    10   Atom       -0.022084     -0.016562      0.038646
    11   Atom       -0.004816      0.003388      0.001428
    12   Atom        0.029783      0.009240     -0.039023
    13   Atom       -0.098215     -0.150586      0.248801
    14   Atom        0.033612      0.025584     -0.059196
    15   Atom        0.002510     -0.000289     -0.002221
    16   Atom       -0.005220      0.006925     -0.001704
    17   Atom        0.024320     -0.012723     -0.011597
    18   Atom        0.002021      0.000060     -0.002081
    19   Atom        0.001142      0.000634     -0.001775
    20   Atom        0.000828     -0.000124     -0.000704
    21   Atom        0.000834     -0.000288     -0.000546
    22   Atom        0.000506     -0.000192     -0.000315
    23   Atom        0.000902     -0.000319     -0.000583
    24   Atom        0.000987     -0.000361     -0.000626
    25   Atom        0.000995     -0.001074      0.000079
    26   Atom        0.000213     -0.000526      0.000313
    27   Atom        0.002408     -0.001346     -0.001062
    28   Atom       -0.001935     -0.002680      0.004615
    29   Atom        0.056345      0.083858     -0.140204
    30   Atom       -0.326274     -0.487178      0.813452
    31   Atom        0.000135     -0.001081      0.000946
    32   Atom        0.002315     -0.001226     -0.001089
    33   Atom       -0.000253      0.000132      0.000121
    34   Atom        0.005068     -0.002695     -0.002373
    35   Atom        0.000304      0.001298     -0.001602
    36   Atom        0.003846     -0.001855     -0.001991
    37   Atom       -0.003976      0.000947      0.003030
    38   Atom       -0.003004      0.008505     -0.005502
    39   Atom        0.010098     -0.002385     -0.007713
    40   Atom        0.001542      0.002030     -0.003572
    41   Atom        0.000703      0.003364     -0.004068
    42   Atom       -0.000562     -0.000650      0.001212
    43   Atom        0.000007     -0.001131      0.001124
    44   Atom       -0.000855      0.001575     -0.000720
    45   Atom       -0.001292      0.000100      0.001192
    46   Atom       -0.000540      0.001139     -0.000598
 --------------------------------------------------------
                        XY            XZ            YZ
 --------------------------------------------------------
     1   Atom        0.013150      0.016851      0.010485
     2   Atom        0.023654      0.013981      0.009243
     3   Atom        0.049839      0.089453      0.075674
     4   Atom        0.013376      0.023329      0.037552
     5   Atom        0.040218      0.177813      0.350029
     6   Atom        0.002718     -0.007550     -0.023370
     7   Atom        0.011569      0.040297      0.066250
     8   Atom        0.018133      0.064690      0.115578
     9   Atom        0.000692     -0.001470      0.004893
    10   Atom        0.001415     -0.003488     -0.018201
    11   Atom        0.000481     -0.000559     -0.007144
    12   Atom       -0.002425     -0.018049     -0.018061
    13   Atom        0.018888      0.133075      0.045021
    14   Atom        0.000030     -0.001419     -0.011945
    15   Atom        0.001882     -0.000304     -0.000706
    16   Atom       -0.001524     -0.000049     -0.003151
    17   Atom       -0.001603      0.002136      0.000268
    18   Atom       -0.000148     -0.000780     -0.000531
    19   Atom       -0.001925     -0.001852      0.000863
    20   Atom       -0.000146      0.000076     -0.000284
    21   Atom       -0.000286     -0.000123     -0.000024
    22   Atom       -0.000200     -0.000118      0.000012
    23   Atom       -0.000233      0.000192     -0.000105
    24   Atom       -0.000236     -0.000117     -0.000034
    25   Atom       -0.000713     -0.002366      0.000473
    26   Atom       -0.000380     -0.001219      0.000530
    27   Atom       -0.002964     -0.003429      0.001834
    28   Atom        0.000242     -0.004929     -0.001151
    29   Atom       -0.017543     -0.019592     -0.006067
    30   Atom       -0.020114      0.489612     -0.049124
    31   Atom        0.000282      0.002813     -0.001225
    32   Atom        0.002520     -0.000868     -0.000380
    33   Atom        0.000479      0.000506      0.003091
    34   Atom        0.000202     -0.001032      0.001595
    35   Atom        0.003561      0.000620     -0.002080
    36   Atom       -0.004093      0.000996      0.009101
    37   Atom        0.000120      0.008442     -0.006474
    38   Atom        0.001065     -0.003301     -0.007337
    39   Atom       -0.008258     -0.005843      0.001881
    40   Atom        0.002977     -0.000325     -0.000011
    41   Atom       -0.003025     -0.001341      0.000615
    42   Atom       -0.001600     -0.002090     -0.001522
    43   Atom        0.001177      0.003052     -0.001840
    44   Atom       -0.000957     -0.000053     -0.000789
    45   Atom        0.000099      0.000354     -0.000722
    46   Atom        0.001002      0.000039     -0.000987
 --------------------------------------------------------


 ---------------------------------------------------------------------------------
              Anisotropic Spin Dipole Couplings in Principal Axis System
 ---------------------------------------------------------------------------------

       Atom             a.u.   MegaHertz   Gauss  10(-4) cm-1        Axes

              Baa    -0.0145    -1.945    -0.694    -0.649 -0.5186 -0.2131  0.8280
     1 C(13)  Bbb    -0.0140    -1.877    -0.670    -0.626 -0.4833  0.8719 -0.0783
              Bcc     0.0285     3.823     1.364     1.275  0.7053  0.4408  0.5552
 
              Baa    -0.0194    -2.610    -0.931    -0.870 -0.3180  0.8009 -0.5074
     2 C(13)  Bbb    -0.0189    -2.531    -0.903    -0.844 -0.5062  0.3091  0.8051
              Bcc     0.0383     5.141     1.834     1.715  0.8016  0.5129  0.3071
 
              Baa    -0.0794   -10.655    -3.802    -3.554 -0.6321 -0.4115  0.6566
     3 C(13)  Bbb    -0.0776   -10.407    -3.713    -3.471 -0.5893  0.8055 -0.0625
              Bcc     0.1570    21.062     7.515     7.026  0.5031  0.4265  0.7517
 
              Baa    -0.0611    -8.201    -2.926    -2.735 -0.4233  0.8923 -0.1567
     4 C(13)  Bbb    -0.0428    -5.743    -2.049    -1.916  0.8888  0.3755 -0.2629
              Bcc     0.1039    13.944     4.976     4.651  0.1757  0.2505  0.9520
 
              Baa    -0.5891   -22.719    -8.107    -7.578  0.7813 -0.6224  0.0473
     5 N(14)  Bbb    -0.5834   -22.500    -8.028    -7.505  0.6154  0.7555 -0.2248
              Bcc     1.1725    45.219    16.135    15.083  0.1042  0.2047  0.9733
 
              Baa    -0.0602    -8.078    -2.882    -2.694  0.0915  0.2221  0.9707
     6 C(13)  Bbb     0.0134     1.795     0.640     0.599  0.9872 -0.1482 -0.0591
              Bcc     0.0468     6.283     2.242     2.096  0.1307  0.9637 -0.2328
 
              Baa    -0.0768     5.561     1.984     1.855 -0.3571 -0.4951  0.7920
     7 O(17)  Bbb    -0.0073     0.527     0.188     0.176  0.8569 -0.5111  0.0669
              Bcc     0.0841    -6.087    -2.172    -2.031  0.3717  0.7025  0.6068
 
              Baa    -0.1983    -7.647    -2.729    -2.551  0.9070 -0.4206 -0.0183
     8 N(14)  Bbb    -0.1870    -7.211    -2.573    -2.405  0.4047  0.8830 -0.2376
              Bcc     0.3852    14.858     5.302     4.956  0.1161  0.2081  0.9712
 
              Baa    -0.0183    -2.452    -0.875    -0.818  0.9939 -0.1012  0.0427
     9 C(13)  Bbb    -0.0100    -1.337    -0.477    -0.446  0.1058  0.9866 -0.1245
              Bcc     0.0282     3.789     1.352     1.264 -0.0295  0.1283  0.9913
 
              Baa    -0.0225    -3.024    -1.079    -1.009  0.8240 -0.5542 -0.1179
    10 C(13)  Bbb    -0.0218    -2.923    -1.043    -0.975  0.5638  0.7813  0.2679
              Bcc     0.0443     5.947     2.122     1.984 -0.0564 -0.2872  0.9562
 
              Baa    -0.0049    -0.662    -0.236    -0.221  0.7843  0.3773  0.4925
    11 C(13)  Bbb    -0.0047    -0.633    -0.226    -0.211  0.6184 -0.5399 -0.5711
              Bcc     0.0097     1.296     0.462     0.432  0.0504  0.7524 -0.6568
 
              Baa    -0.0491    -6.589    -2.351    -2.198  0.2217  0.2968  0.9289
    12 C(13)  Bbb     0.0147     1.971     0.703     0.657 -0.1636  0.9504 -0.2646
              Bcc     0.0344     4.618     1.648     1.540  0.9613  0.0934 -0.2592
 
              Baa    -0.1567    11.340     4.047     3.783 -0.2671  0.9635 -0.0193
    13 O(17)  Bbb    -0.1425    10.312     3.679     3.440  0.9089  0.2452 -0.3373
              Bcc     0.2992   -21.652    -7.726    -7.222  0.3203  0.1076  0.9412
 
              Baa    -0.0609    -2.348    -0.838    -0.783  0.0148  0.1369  0.9905
    14 N(14)  Bbb     0.0272     1.050     0.375     0.350 -0.0349  0.9901 -0.1363
              Bcc     0.0336     1.297     0.463     0.433  0.9993  0.0325 -0.0195
 
              Baa    -0.0025    -0.332    -0.119    -0.111 -0.0836  0.3706  0.9250
    15 C(13)  Bbb    -0.0010    -0.140    -0.050    -0.047 -0.4601  0.8090 -0.3657
              Bcc     0.0035     0.472     0.168     0.157  0.8839  0.4562 -0.1029
 
              Baa    -0.0055    -2.748    -0.981    -0.917  0.9772  0.1566  0.1436
    16 F(19)  Bbb    -0.0026    -1.324    -0.472    -0.442 -0.1835  0.2812  0.9419
              Bcc     0.0081     4.072     1.453     1.358 -0.1071  0.9468 -0.3035
 
              Baa    -0.0129    -6.479    -2.312    -2.161  0.0578  0.9551 -0.2906
    17 F(19)  Bbb    -0.0116    -5.832    -2.081    -1.945 -0.0437  0.2932  0.9551
              Bcc     0.0245    12.311     4.393     4.107  0.9974 -0.0425  0.0587
 
              Baa    -0.0023    -0.315    -0.113    -0.105  0.1786  0.2222  0.9585
    18 C(13)  Bbb     0.0002     0.025     0.009     0.008 -0.0159  0.9747 -0.2229
              Bcc     0.0022     0.291     0.104     0.097  0.9838 -0.0245 -0.1776
 
              Baa    -0.0027    -1.344    -0.480    -0.448  0.4473  0.0271  0.8940
    19 F(19)  Bbb    -0.0009    -0.444    -0.158    -0.148  0.5133  0.8108 -0.2813
              Bcc     0.0036     1.788     0.638     0.596  0.7325 -0.5847 -0.3488
 
              Baa    -0.0008     0.059     0.021     0.020 -0.0091  0.3757  0.9267
    20 O(17)  Bbb     0.0000     0.003     0.001     0.001  0.1856  0.9112 -0.3676
              Bcc     0.0009    -0.062    -0.022    -0.021  0.9826 -0.1687  0.0781
 
              Baa    -0.0006    -0.076    -0.027    -0.025  0.1289  0.2146  0.9682
    21 C(13)  Bbb    -0.0003    -0.046    -0.016    -0.015  0.2060  0.9492 -0.2378
              Bcc     0.0009     0.122     0.044     0.041  0.9700 -0.2300 -0.0781
 
              Baa    -0.0003    -0.168    -0.060    -0.056  0.1748  0.1614  0.9713
    22 F(19)  Bbb    -0.0002    -0.121    -0.043    -0.040  0.2240  0.9541 -0.1989
              Bcc     0.0006     0.289     0.103     0.096  0.9588 -0.2523 -0.1306
 
              Baa    -0.0006    -0.316    -0.113    -0.105 -0.0794  0.2678  0.9602
    23 F(19)  Bbb    -0.0003    -0.173    -0.062    -0.058  0.2142  0.9453 -0.2459
              Bcc     0.0010     0.489     0.174     0.163  0.9736 -0.1861  0.1325
 
              Baa    -0.0006    -0.324    -0.116    -0.108  0.0986  0.1986  0.9751
    24 F(19)  Bbb    -0.0004    -0.196    -0.070    -0.065  0.1477  0.9661 -0.2117
              Bcc     0.0010     0.520     0.185     0.173  0.9841 -0.1649 -0.0659
 
              Baa    -0.0019    -0.253    -0.090    -0.084  0.6486  0.1328  0.7494
    25 C(13)  Bbb    -0.0012    -0.166    -0.059    -0.055  0.0666  0.9710 -0.2297
              Bcc     0.0031     0.419     0.149     0.140  0.7582 -0.1989 -0.6210
 
              Baa    -0.0010    -0.495    -0.177    -0.165  0.6306 -0.3021  0.7149
    26 F(19)  Bbb    -0.0007    -0.345    -0.123    -0.115  0.4128  0.9106  0.0207
              Bcc     0.0017     0.840     0.300     0.280 -0.6572  0.2820  0.6990
 
              Baa    -0.0032    -1.592    -0.568    -0.531  0.5078 -0.0399  0.8605
    27 F(19)  Bbb    -0.0030    -1.491    -0.532    -0.497  0.3822  0.9057 -0.1836
              Bcc     0.0061     3.083     1.100     1.028  0.7720 -0.4221 -0.4752
 
              Baa    -0.0046    -2.329    -0.831    -0.777  0.8596  0.1758  0.4798
    28 F(19)  Bbb    -0.0027    -1.380    -0.492    -0.460 -0.2078  0.9781  0.0137
              Bcc     0.0074     3.709     1.323     1.237 -0.4669 -0.1115  0.8773
 
              Baa    -0.1424   -19.109    -6.819    -6.374  0.1011  0.0345  0.9943
    29 C(13)  Bbb     0.0500     6.705     2.393     2.237  0.8907  0.4421 -0.1059
              Bcc     0.0924    12.404     4.426     4.138 -0.4432  0.8963  0.0140
 
              Baa    -0.5079    36.751    13.113    12.259  0.9346  0.0946 -0.3428
    30 O(17)  Bbb    -0.4889    35.377    12.623    11.800 -0.0764  0.9949  0.0662
              Bcc     0.9968   -72.127   -25.737   -24.059  0.3473 -0.0357  0.9371
 
              Baa    -0.0029    -1.546    -0.552    -0.516  0.6116 -0.5054 -0.6087
    31 H(1)   Bbb    -0.0006    -0.326    -0.116    -0.109  0.4870  0.8468 -0.2138
              Bcc     0.0035     1.871     0.668     0.624  0.6235 -0.1657  0.7641
 
              Baa    -0.0025    -1.354    -0.483    -0.452 -0.4670  0.8830 -0.0478
    32 H(1)   Bbb    -0.0013    -0.677    -0.242    -0.226  0.1458  0.1302  0.9807
              Bcc     0.0038     2.031     0.725     0.678  0.8722  0.4510 -0.1896
 
              Baa    -0.0030    -1.582    -0.564    -0.528 -0.0076 -0.7058  0.7083
    33 H(1)   Bbb    -0.0004    -0.207    -0.074    -0.069  0.9818 -0.1397 -0.1286
              Bcc     0.0034     1.788     0.638     0.597  0.1897  0.6945  0.6941
 
              Baa    -0.0042    -2.249    -0.802    -0.750 -0.0915  0.7268 -0.6808
    34 H(1)   Bbb    -0.0010    -0.530    -0.189    -0.177  0.0996  0.6869  0.7199
              Bcc     0.0052     2.779     0.992     0.927  0.9908 -0.0019 -0.1353
 
              Baa    -0.0042    -2.231    -0.796    -0.744 -0.5461  0.5832  0.6014
    35 H(1)   Bbb    -0.0004    -0.239    -0.085    -0.080  0.5783 -0.2570  0.7743
              Bcc     0.0046     2.471     0.882     0.824  0.6062  0.7706 -0.1969
 
              Baa    -0.0119    -6.327    -2.258    -2.111  0.2263  0.7045 -0.6726
    36 H(1)   Bbb     0.0034     1.835     0.655     0.612  0.8425  0.2050  0.4981
              Bcc     0.0084     4.492     1.603     1.498 -0.4888  0.6794  0.5472
 
              Baa    -0.0109    -5.828    -2.080    -1.944  0.7305 -0.3326 -0.5964
    37 H(1)   Bbb    -0.0006    -0.317    -0.113    -0.106  0.5389  0.8172  0.2044
              Bcc     0.0115     6.145     2.193     2.050  0.4194 -0.4707  0.7762
 
              Baa    -0.0097    -5.176    -1.847    -1.727  0.3753  0.3275  0.8671
    38 H(1)   Bbb    -0.0023    -1.225    -0.437    -0.409  0.9141 -0.2856 -0.2878
              Bcc     0.0120     6.402     2.284     2.135  0.1534  0.9007 -0.4066
 
              Baa    -0.0095    -5.091    -1.816    -1.698  0.3378  0.1453  0.9300
    39 H(1)   Bbb    -0.0062    -3.328    -1.187    -1.110  0.3561  0.8949 -0.2691
              Bcc     0.0158     8.419     3.004     2.808  0.8713 -0.4221 -0.2505
 
              Baa    -0.0036    -1.921    -0.685    -0.641  0.0889 -0.0450  0.9950
    40 H(1)   Bbb    -0.0012    -0.629    -0.224    -0.210  0.7296 -0.6771 -0.0958
              Bcc     0.0048     2.550     0.910     0.851  0.6781  0.7345 -0.0273
 
              Baa    -0.0044    -2.360    -0.842    -0.787  0.2686  0.0283  0.9628
    41 H(1)   Bbb    -0.0011    -0.576    -0.205    -0.192  0.7876  0.5689 -0.2365
              Bcc     0.0055     2.936     1.048     0.979 -0.5545  0.8219  0.1305
 
              Baa    -0.0036    -1.907    -0.681    -0.636  0.6460  0.5994  0.4726
    42 H(1)   Bbb     0.0009     0.488     0.174     0.163 -0.5957  0.7830 -0.1788
              Bcc     0.0027     1.419     0.506     0.473 -0.4772 -0.1660  0.8630
 
              Baa    -0.0041    -2.162    -0.771    -0.721  0.5883 -0.5873 -0.5558
    43 H(1)   Bbb     0.0003     0.149     0.053     0.050  0.5501  0.7945 -0.2572
              Bcc     0.0038     2.012     0.718     0.671  0.5926 -0.1545  0.7905
 
              Baa    -0.0014    -0.735    -0.262    -0.245  0.7591  0.3859  0.5242
    44 H(1)   Bbb    -0.0007    -0.383    -0.137    -0.128 -0.5807  0.0375  0.8133
              Bcc     0.0021     1.119     0.399     0.373 -0.2942  0.9218 -0.2525
 
              Baa    -0.0014    -0.732    -0.261    -0.244  0.9724 -0.1521 -0.1770
    45 H(1)   Bbb    -0.0002    -0.110    -0.039    -0.037  0.2129  0.8889  0.4056
              Bcc     0.0016     0.842     0.300     0.281  0.0957 -0.4321  0.8967
 
              Baa    -0.0014    -0.742    -0.265    -0.247 -0.6013  0.4856  0.6346
    46 H(1)   Bbb    -0.0005    -0.283    -0.101    -0.094  0.7181 -0.0198  0.6956
              Bcc     0.0019     1.025     0.366     0.342  0.3504  0.8740 -0.3368
 

 ---------------------------------------------------------------------------------

 No NMR shielding tensors so no spin-rotation constants.
 Leave Link  601 at Sun Mar  3 18:06:11 2024, MaxMem=  5368709120 cpu:         7.1
 (Enter /home/k0335/k033513/app/g09/l9999.exe)
 1\1\GINC-C18U05N1\SP\UCAM-B3LYP\6-31G(d,p)\C14H16F9N3O4(1+,2)\K033513\
 03-Mar-2024\0\\#p CAM-B3LYP/6-31G(d,p) SCRF=(PCM,Solvent=Generic,Read)
  NoSymm out=wfn\\Title A891690742_p1\\1,2\C,0,-4.886992,-2.450705,-1.0
 70295\C,0,-4.298865,-1.99227,0.254574\C,0,-2.967383,-1.269951,0.055679
 \C,0,-2.378988,-0.810218,1.393585\N,0,-1.100212,-0.121367,1.215727\C,0
 ,-1.126029,1.227057,0.925479\O,0,-2.180086,1.860614,0.853196\N,0,0.099
 062,1.813668,0.683505\C,0,0.12153,3.22564,0.299302\C,0,-0.065075,3.404
 656,-1.209552\C,0,-0.038196,4.872497,-1.602499\C,0,1.281461,1.106867,0
 .644371\O,0,2.322305,1.617168,0.233703\N,0,1.232345,-0.201427,1.050745
 \C,0,2.479645,-0.948709,1.041985\F,0,3.387643,-0.187769,1.731401\F,0,2
 .373888,-2.060962,1.829213\C,0,3.113155,-1.368606,-0.320483\F,0,3.4149
 36,-0.282077,-1.089077\O,0,4.321548,-2.146082,-0.241437\C,0,5.337983,-
 1.535322,0.507266\F,0,6.516593,-2.07488,0.140566\F,0,5.141728,-1.79370
 6,1.811189\F,0,5.387356,-0.211957,0.297408\C,0,2.097838,-2.203863,-1.0
 91908\F,0,2.595062,-2.578313,-2.299972\F,0,1.760463,-3.339998,-0.44808
 \F,0,0.96303,-1.511071,-1.351052\C,0,0.049226,-0.880221,1.172659\O,0,0
 .00751,-2.109344,1.193815\H,0,-5.07147,-1.599295,-1.733176\H,0,-5.8389
 03,-2.964868,-0.90478\H,0,-4.210733,-3.143804,-1.580821\H,0,-5.012626,
 -1.326704,0.753786\H,0,-4.156596,-2.862924,0.905246\H,0,-2.259057,-1.9
 35211,-0.453224\H,0,-3.11158,-0.405112,-0.603497\H,0,-2.233198,-1.6739
 06,2.053488\H,0,-3.082892,-0.138477,1.899288\H,0,1.074104,3.669582,0.6
 1262\H,0,-0.67001,3.759423,0.838778\H,0,0.723781,2.870767,-1.752315\H,
 0,-1.017526,2.963339,-1.525811\H,0,-0.840053,5.42657,-1.104188\H,0,-0.
 173265,4.978135,-2.683457\H,0,0.917545,5.333136,-1.332949\\Version=ES6
 4L-G09RevD.01\HF=-1905.9637944\S2=0.773509\S2-1=0.\S2A=0.750353\RMSD=7
 .388e-09\Dipole=-4.8365234,1.5740061,1.0597035\Quadrupole=1.8422896,2.
 0660368,-3.9083263,8.6053013,-2.338348,-1.675835\PG=C01 [X(C14H16F9N3O
 4)]\\@

 Writing a WFN file to "A891690742/A891690742_p1.wfn"


 If your ship doesn't come in, swim out to it!
                          -- Jonathan Winters
 Job cpu time:       0 days  0 hours 58 minutes 35.8 seconds.
 File lengths (MBytes):  RWF=    462 Int=      0 D2E=      0 Chk=     15 Scr=      1
 Normal termination of Gaussian 09 at Sun Mar  3 18:06:12 2024.
