 Entering Gaussian System, Link 0=g09
 Initial command:
 /home/k0335/k033513/app/g09/l1.exe "/home/k0335/k033513/app/g09/scratch/Gau-649894.inp" -scrdir="/home/k0335/k033513/app/g09/scratch/"
 Default is to use a total of  36 processors:
                               36 via shared-memory
                                1 via Linda
 Entering Link 1 = /home/k0335/k033513/app/g09/l1.exe PID=    649895.
  
 Copyright (c) 1988,1990,1992,1993,1995,1998,2003,2009,2013,
            Gaussian, Inc.  All Rights Reserved.
  
 This is part of the Gaussian(R) 09 program.  It is based on
 the Gaussian(R) 03 system (copyright 2003, Gaussian, Inc.),
 the Gaussian(R) 98 system (copyright 1998, Gaussian, Inc.),
 the Gaussian(R) 94 system (copyright 1995, Gaussian, Inc.),
 the Gaussian 92(TM) system (copyright 1992, Gaussian, Inc.),
 the Gaussian 90(TM) system (copyright 1990, Gaussian, Inc.),
 the Gaussian 88(TM) system (copyright 1988, Gaussian, Inc.),
 the Gaussian 86(TM) system (copyright 1986, Carnegie Mellon
 University), and the Gaussian 82(TM) system (copyright 1983,
 Carnegie Mellon University). Gaussian is a federally registered
 trademark of Gaussian, Inc.
  
 This software contains proprietary and confidential information,
 including trade secrets, belonging to Gaussian, Inc.
  
 This software is provided under written license and may be
 used, copied, transmitted, or stored only in accord with that
 written license.
  
 The following legend is applicable only to US Government
 contracts under FAR:
  
                    RESTRICTED RIGHTS LEGEND
  
 Use, reproduction and disclosure by the US Government is
 subject to restrictions as set forth in subparagraphs (a)
 and (c) of the Commercial Computer Software - Restricted
 Rights clause in FAR 52.227-19.
  
 Gaussian, Inc.
 340 Quinnipiac St., Bldg. 40, Wallingford CT 06492
  
  
 ---------------------------------------------------------------
 Warning -- This program may not be used in any manner that
 competes with the business of Gaussian, Inc. or will provide
 assistance to any competitor of Gaussian, Inc.  The licensee
 of this program is prohibited from giving any competitor of
 Gaussian, Inc. access to this program.  By using this program,
 the user acknowledges that Gaussian, Inc. is engaged in the
 business of creating and licensing software in the field of
 computational chemistry and represents and warrants to the
 licensee that it is not a competitor of Gaussian, Inc. and that
 it will not use this program in any manner prohibited above.
 ---------------------------------------------------------------
  

 Cite this work as:
 Gaussian 09, Revision D.01,
 M. J. Frisch, G. W. Trucks, H. B. Schlegel, G. E. Scuseria, 
 M. A. Robb, J. R. Cheeseman, G. Scalmani, V. Barone, B. Mennucci, 
 G. A. Petersson, H. Nakatsuji, M. Caricato, X. Li, H. P. Hratchian, 
 A. F. Izmaylov, J. Bloino, G. Zheng, J. L. Sonnenberg, M. Hada, 
 M. Ehara, K. Toyota, R. Fukuda, J. Hasegawa, M. Ishida, T. Nakajima, 
 Y. Honda, O. Kitao, H. Nakai, T. Vreven, J. A. Montgomery, Jr., 
 J. E. Peralta, F. Ogliaro, M. Bearpark, J. J. Heyd, E. Brothers, 
 K. N. Kudin, V. N. Staroverov, T. Keith, R. Kobayashi, J. Normand, 
 K. Raghavachari, A. Rendell, J. C. Burant, S. S. Iyengar, J. Tomasi, 
 M. Cossi, N. Rega, J. M. Millam, M. Klene, J. E. Knox, J. B. Cross, 
 V. Bakken, C. Adamo, J. Jaramillo, R. Gomperts, R. E. Stratmann, 
 O. Yazyev, A. J. Austin, R. Cammi, C. Pomelli, J. W. Ochterski, 
 R. L. Martin, K. Morokuma, V. G. Zakrzewski, G. A. Voth, 
 P. Salvador, J. J. Dannenberg, S. Dapprich, A. D. Daniels, 
 O. Farkas, J. B. Foresman, J. V. Ortiz, J. Cioslowski, 
 and D. J. Fox, Gaussian, Inc., Wallingford CT, 2013.
 
 ******************************************
 Gaussian 09:  ES64L-G09RevD.01 24-Apr-2013
                 3-Mar-2024 
 ******************************************
 %nprocshared=24
 Will use up to   24 processors via shared memory.
 %mem=40GB
 %rwf=A1452355790/A1452355790_p1.rwf
 %nosave
 %chk=A1452355790/A1452355790_p1.chk
 ----------------------------------------------------------------------
 #p CAM-B3LYP/6-31G(d,p) SCRF=(PCM,Solvent=Generic,Read) NoSymm out=wfn
 ----------------------------------------------------------------------
 1/38=1,40=2/1;
 2/12=2,15=1,17=6,18=5,40=1/2;
 3/5=1,6=6,7=101,11=2,16=1,25=1,30=1,70=2203,72=-2,74=-40/1,2,3;
 4//1;
 5/5=2,38=5/2;
 6/7=2,8=2,9=2,10=2,28=1/1;
 99/5=1,6=100,9=1/99;
 Leave Link    1 at Sun Mar  3 17:37:43 2024, MaxMem=  5368709120 cpu:         2.0
 (Enter /home/k0335/k033513/app/g09/l101.exe)
 --------------------
 Title A1452355790_p1
 --------------------
 Symbolic Z-matrix:
 Charge =  1 Multiplicity = 2
 C                     3.08331   2.33436  -0.16472 
 C                     3.30432   1.38243  -1.33083 
 C                     2.00007   0.90196  -1.97711 
 N                     1.2057    0.04848  -1.09181 
 C                     1.52728  -1.29205  -1.02341 
 O                     2.51362  -1.75939  -1.59417 
 N                     0.66177  -2.07707  -0.28991 
 C                     0.87937  -3.52309  -0.28103 
 C                     1.80153  -3.94459   0.85441 
 C                    -0.3513   -1.55939   0.49135 
 O                    -1.13946  -2.2931    1.08662 
 N                    -0.43347  -0.19126   0.55591 
 C                    -1.51418   0.37991   1.34643 
 F                    -1.60077  -0.31105   2.52034 
 F                    -1.15041   1.62492   1.7603 
 C                    -2.89689   0.41389   0.64013 
 F                    -3.21625  -0.87143   0.26114 
 O                    -2.90504   1.10583  -0.61525 
 C                    -3.13444   2.49241  -0.52918 
 F                    -2.39857   3.05353   0.43657 
 F                    -4.43623   2.71087  -0.27972 
 F                    -2.82609   3.05679  -1.71044 
 C                    -3.93456   0.83376   1.68995 
 F                    -5.17943   0.85414   1.15054 
 F                    -3.70541   2.06478   2.19307 
 F                    -3.99082  -0.01772   2.7381 
 C                     0.16174   0.60568  -0.38526 
 O                    -0.22668   1.75269  -0.60363 
 H                     2.4784    3.19461  -0.4681 
 H                     4.04452   2.70905   0.20148 
 H                     2.58266   1.83434   0.66975 
 H                     3.899     1.89946  -2.09322 
 H                     3.8989    0.52826  -0.98758 
 H                     1.41007   1.76514  -2.30511 
 H                     2.2454    0.33037  -2.88065 
 H                     1.31185  -3.83643  -1.23806 
 H                    -0.08172  -4.03987  -0.18096 
 H                     1.95122  -5.02848   0.83981 
 H                     2.78062  -3.4624    0.76711 
 H                     1.38036  -3.67033   1.82713 
 
 NAtoms=     40 NQM=       40 NQMF=       0 NMMI=      0 NMMIF=      0
                NMic=       0 NMicF=      0.
                    Isotopes and Nuclear Properties:
 (Nuclear quadrupole moments (NQMom) in fm**2, nuclear magnetic moments (NMagM)
  in nuclear magnetons)

  Atom         1           2           3           4           5           6           7           8           9          10
 IAtWgt=          12          12          12          14          12          16          14          12          12          12
 AtmWgt=  12.0000000  12.0000000  12.0000000  14.0030740  12.0000000  15.9949146  14.0030740  12.0000000  12.0000000  12.0000000
 NucSpn=           0           0           0           2           0           0           2           0           0           0
 AtZEff=   0.0000000   0.0000000   0.0000000   0.0000000   0.0000000   0.0000000   0.0000000   0.0000000   0.0000000   0.0000000
 NQMom=    0.0000000   0.0000000   0.0000000   2.0440000   0.0000000   0.0000000   2.0440000   0.0000000   0.0000000   0.0000000
 NMagM=    0.0000000   0.0000000   0.0000000   0.4037610   0.0000000   0.0000000   0.4037610   0.0000000   0.0000000   0.0000000
 AtZNuc=   6.0000000   6.0000000   6.0000000   7.0000000   6.0000000   8.0000000   7.0000000   6.0000000   6.0000000   6.0000000

  Atom        11          12          13          14          15          16          17          18          19          20
 IAtWgt=          16          14          12          19          19          12          19          16          12          19
 AtmWgt=  15.9949146  14.0030740  12.0000000  18.9984033  18.9984033  12.0000000  18.9984033  15.9949146  12.0000000  18.9984033
 NucSpn=           0           2           0           1           1           0           1           0           0           1
 AtZEff=   0.0000000   0.0000000   0.0000000   0.0000000   0.0000000   0.0000000   0.0000000   0.0000000   0.0000000   0.0000000
 NQMom=    0.0000000   2.0440000   0.0000000   0.0000000   0.0000000   0.0000000   0.0000000   0.0000000   0.0000000   0.0000000
 NMagM=    0.0000000   0.4037610   0.0000000   2.6288670   2.6288670   0.0000000   2.6288670   0.0000000   0.0000000   2.6288670
 AtZNuc=   8.0000000   7.0000000   6.0000000   9.0000000   9.0000000   6.0000000   9.0000000   8.0000000   6.0000000   9.0000000

  Atom        21          22          23          24          25          26          27          28          29          30
 IAtWgt=          19          19          12          19          19          19          12          16           1           1
 AtmWgt=  18.9984033  18.9984033  12.0000000  18.9984033  18.9984033  18.9984033  12.0000000  15.9949146   1.0078250   1.0078250
 NucSpn=           1           1           0           1           1           1           0           0           1           1
 AtZEff=   0.0000000   0.0000000   0.0000000   0.0000000   0.0000000   0.0000000   0.0000000   0.0000000   0.0000000   0.0000000
 NQMom=    0.0000000   0.0000000   0.0000000   0.0000000   0.0000000   0.0000000   0.0000000   0.0000000   0.0000000   0.0000000
 NMagM=    2.6288670   2.6288670   0.0000000   2.6288670   2.6288670   2.6288670   0.0000000   0.0000000   2.7928460   2.7928460
 AtZNuc=   9.0000000   9.0000000   6.0000000   9.0000000   9.0000000   9.0000000   6.0000000   8.0000000   1.0000000   1.0000000

  Atom        31          32          33          34          35          36          37          38          39          40
 IAtWgt=           1           1           1           1           1           1           1           1           1           1
 AtmWgt=   1.0078250   1.0078250   1.0078250   1.0078250   1.0078250   1.0078250   1.0078250   1.0078250   1.0078250   1.0078250
 NucSpn=           1           1           1           1           1           1           1           1           1           1
 AtZEff=   0.0000000   0.0000000   0.0000000   0.0000000   0.0000000   0.0000000   0.0000000   0.0000000   0.0000000   0.0000000
 NQMom=    0.0000000   0.0000000   0.0000000   0.0000000   0.0000000   0.0000000   0.0000000   0.0000000   0.0000000   0.0000000
 NMagM=    2.7928460   2.7928460   2.7928460   2.7928460   2.7928460   2.7928460   2.7928460   2.7928460   2.7928460   2.7928460
 AtZNuc=   1.0000000   1.0000000   1.0000000   1.0000000   1.0000000   1.0000000   1.0000000   1.0000000   1.0000000   1.0000000
 Leave Link  101 at Sun Mar  3 17:37:43 2024, MaxMem=  5368709120 cpu:         0.8
 (Enter /home/k0335/k033513/app/g09/l202.exe)
                          Input orientation:                          
 ---------------------------------------------------------------------
 Center     Atomic      Atomic             Coordinates (Angstroms)
 Number     Number       Type             X           Y           Z
 ---------------------------------------------------------------------
      1          6           0        3.083310    2.334358   -0.164718
      2          6           0        3.304324    1.382425   -1.330826
      3          6           0        2.000070    0.901957   -1.977106
      4          7           0        1.205702    0.048483   -1.091813
      5          6           0        1.527275   -1.292050   -1.023409
      6          8           0        2.513624   -1.759390   -1.594167
      7          7           0        0.661767   -2.077071   -0.289913
      8          6           0        0.879374   -3.523087   -0.281031
      9          6           0        1.801534   -3.944585    0.854412
     10          6           0       -0.351295   -1.559390    0.491346
     11          8           0       -1.139465   -2.293101    1.086621
     12          7           0       -0.433470   -0.191255    0.555914
     13          6           0       -1.514182    0.379905    1.346432
     14          9           0       -1.600770   -0.311052    2.520344
     15          9           0       -1.150414    1.624921    1.760303
     16          6           0       -2.896886    0.413890    0.640128
     17          9           0       -3.216247   -0.871425    0.261138
     18          8           0       -2.905039    1.105832   -0.615252
     19          6           0       -3.134442    2.492411   -0.529176
     20          9           0       -2.398569    3.053531    0.436574
     21          9           0       -4.436230    2.710869   -0.279716
     22          9           0       -2.826085    3.056787   -1.710442
     23          6           0       -3.934564    0.833764    1.689954
     24          9           0       -5.179431    0.854136    1.150536
     25          9           0       -3.705413    2.064784    2.193071
     26          9           0       -3.990818   -0.017720    2.738096
     27          6           0        0.161740    0.605678   -0.385262
     28          8           0       -0.226682    1.752690   -0.603625
     29          1           0        2.478402    3.194607   -0.468104
     30          1           0        4.044522    2.709054    0.201478
     31          1           0        2.582657    1.834336    0.669749
     32          1           0        3.899003    1.899457   -2.093216
     33          1           0        3.898897    0.528258   -0.987583
     34          1           0        1.410071    1.765135   -2.305105
     35          1           0        2.245400    0.330368   -2.880654
     36          1           0        1.311850   -3.836431   -1.238059
     37          1           0       -0.081715   -4.039874   -0.180964
     38          1           0        1.951218   -5.028478    0.839807
     39          1           0        2.780616   -3.462403    0.767110
     40          1           0        1.380361   -3.670327    1.827126
 ---------------------------------------------------------------------
                    Distance matrix (angstroms):
                    1          2          3          4          5
     1  C    0.000000
     2  C    1.521457   0.000000
     3  C    2.551457   1.532842   0.000000
     4  N    3.100023   2.498148   1.463961   0.000000
     5  C    4.038494   3.225713   2.438594   1.380260   0.000000
     6  O    4.373401   3.250470   2.737361   2.287231   1.231688
     7  N    5.033910   4.476016   3.675906   2.335998   1.379630
     8  C    6.259435   5.571939   4.869666   3.676951   2.438940
     9  C    6.488968   5.950687   5.616572   4.481897   3.261498
    10  C    5.233374   5.033700   4.204807   2.741512   2.427958
    11  O    6.388353   6.253063   5.426924   3.965905   3.544832
    12  N    4.389279   4.472959   3.678780   2.336528   2.747823
    13  C    5.219233   5.602745   4.865019   3.667785   4.202623
    14  F    6.012350   6.462145   5.887656   4.588380   4.827547
    15  F    4.704617   5.427575   4.941301   4.021319   4.840226
    16  C    6.332355   6.578581   5.573895   4.468151   5.025016
    17  F    7.081159   7.080398   5.946813   4.714906   4.932341
    18  O    6.129648   6.256576   5.094733   4.271216   5.055872
    19  C    6.230429   6.582736   5.566800   5.012604   6.024784
    20  F    5.561453   6.199942   5.459226   4.935286   6.035551
    21  F    7.529838   7.923747   6.897772   6.291200   7.220792
    22  F    6.150782   6.366279   5.292086   5.068323   6.191619
    23  C    7.412297   7.863055   6.976522   5.897222   6.458569
    24  F    8.496696   8.854962   7.831326   6.815213   7.369671
    25  F    7.191564   7.875270   7.162058   6.242995   6.999650
    26  F    8.000118   8.469689   7.679171   6.455727   6.798690
    27  C    3.401844   3.372427   2.449736   1.378237   2.423487
    28  O    3.389251   3.624075   2.751113   2.279117   3.538789
    29  H    1.094525   2.170355   2.786060   3.450634   4.619859
    30  H    1.094726   2.157729   3.491649   4.100017   4.883207
    31  H    1.094080   2.174242   2.866109   2.861534   3.708761
    32  H    2.138597   1.096451   2.148123   3.418009   4.117681
    33  H    2.145760   1.095871   2.173557   2.737581   2.989882
    34  H    2.775788   2.164228   1.095791   2.112046   3.317056
    35  H    3.477697   2.151769   1.096950   2.088153   2.568521
    36  H    6.509130   5.587040   4.844807   3.889115   2.562490
    37  H    7.116775   6.495288   5.655232   4.381980   3.293797
    38  H    7.516785   6.902334   6.565626   5.482926   4.196689
    39  H    5.878977   5.305465   5.214174   4.273438   3.080139
    40  H    6.551620   6.261357   5.980134   4.730778   3.715284
                    6          7          8          9         10
     6  O    0.000000
     7  N    2.287220   0.000000
     8  C    2.739658   1.462325   0.000000
     9  C    3.358227   2.469040   1.522258   0.000000
    10  C    3.549243   1.380092   2.442789   3.233519   0.000000
    11  O    4.562514   2.277268   2.731126   3.380946   1.230405
    12  N    3.970801   2.339074   3.677654   4.378565   1.372121
    13  C    5.426502   3.667303   4.859125   5.471496   2.417508
    14  F    5.996259   4.016894   4.931124   5.249149   2.690050
    15  F    6.010924   4.603491   5.898226   6.368205   3.519756
    16  C    6.244104   4.442283   5.532491   6.412283   3.224283
    17  F    6.087862   4.098321   4.909111   5.913917   2.955375
    18  O    6.207228   4.791536   5.988353   7.058219   3.853515
    19  C    7.149312   5.945470   7.235918   8.228797   5.020405
    20  F    7.170618   6.018016   7.383209   8.172459   5.047115
    21  F    8.367286   6.993858   8.192549   9.191899   5.959559
    22  F    7.191771   6.367065   7.685596   8.775679   5.681685
    23  C    7.686939   5.789568   6.785347   7.512228   4.472546
    24  F    8.575955   6.692269   7.610426   8.476396   5.437880
    25  F    8.224591   6.510947   7.639748   8.260205   5.223085
    26  F    8.006852   5.920837   6.717254   7.247060   4.546511
    27  C    3.547726   2.730615   4.191964   4.993056   2.391478
    28  O    4.563459   3.943961   5.400116   6.220810   3.490611
    29  H    5.080487   5.578755   6.907916   7.292137   5.614999
    30  H    5.053215   5.881453   7.006465   7.051825   6.134072
    31  H    4.247935   4.462048   5.701503   5.834396   4.489686
    32  H    3.944044   5.435474   6.465768   6.873188   6.058764
    33  H    2.742309   4.213489   5.101973   5.272400   4.960810
    34  H    3.761056   4.402670   5.687162   6.537331   4.687752
    35  H    2.468619   3.874996   4.844913   5.694116   4.656651
    36  H    2.425938   2.101651   1.095957   2.151725   3.307840
    37  H    3.732765   2.101721   1.095798   2.151211   2.584081
    38  H    4.114300   3.413174   2.161326   1.094277   4.178225
    39  H    2.923554   2.743349   2.171866   1.094862   3.675101
    40  H    4.079364   2.745304   2.171864   1.094887   3.039572
                   11         12         13         14         15
    11  O    0.000000
    12  N    2.279876   0.000000
    13  C    2.711619   1.455706   0.000000
    14  F    2.489354   2.288215   1.364913   0.000000
    15  F    3.975533   2.294135   1.361500   2.128021   0.000000
    16  C    3.258172   2.538053   1.553026   2.395969   2.402406
    17  F    2.648699   2.879822   2.375019   2.833336   3.570281
    18  O    4.191225   3.026998   2.511903   3.679761   2.998570
    19  C    5.430641   3.959133   3.256659   4.417140   3.151289
    20  F    5.531218   3.795325   2.959435   4.037202   2.313239
    21  F    6.146158   5.014249   4.076287   5.001217   4.017157
    22  F    6.268138   4.627175   4.269809   5.544663   4.111470
    23  C    4.237201   3.820258   2.486412   2.728873   2.895232
    24  F    5.121573   4.895974   3.700989   4.005103   4.147156
    25  F    5.176822   4.298326   2.890866   3.190803   2.628457
    26  F    4.004365   4.176932   2.868547   2.417807   3.423776
    27  C    3.501784   1.369376   2.420424   3.519855   2.713679
    28  O    4.478675   2.272931   2.710151   3.988274   2.541213
    29  H    6.754337   4.581667   5.211124   6.153057   4.538504
    30  H    7.258013   5.346946   6.134741   6.809369   5.531061
    31  H    5.573483   3.634969   4.399700   5.052569   3.894738
    32  H    7.285264   5.491747   6.591114   7.511244   6.357798
    33  H    6.135754   4.655049   5.896699   6.576954   5.852272
    34  H    5.871390   3.925753   4.878918   6.054806   4.806588
    35  H    5.837737   4.388443   5.657311   6.661473   5.894565
    36  H    3.714155   4.421741   5.695923   5.919227   6.699200
    37  H    2.403502   3.934284   4.890741   4.848578   6.082807
    38  H    4.134674   5.400561   6.443312   6.139620   7.398321
    39  H    4.103217   4.590791   5.791738   5.674626   6.505405
    40  H    2.965573   4.124307   5.001382   4.544494   5.869322
                   16         17         18         19         20
    16  C    0.000000
    17  F    1.377556   0.000000
    18  O    1.433468   2.185053   0.000000
    19  C    2.396655   3.456397   1.408061   0.000000
    20  F    2.693967   4.013061   2.270767   1.337549   0.000000
    21  F    2.914070   3.822788   2.243496   1.343356   2.186904
    22  F    3.537668   4.412505   2.238727   1.344988   2.189168
    23  C    1.534668   2.337769   2.539275   2.883720   2.976173
    24  F    2.379988   2.760920   2.890366   3.112452   3.616666
    25  F    2.406408   3.548658   3.073575   2.814161   2.402237
    26  F    2.405087   2.732049   3.699490   4.208230   4.155098
    27  C    3.231625   3.743055   3.115796   3.800696   3.636287
    28  O    3.235629   4.070785   2.755387   3.001299   2.737023
    29  H    6.152584   7.035157   5.776337   5.656927   4.962176
    30  H    7.324161   8.095811   7.178702   7.219301   6.456575
    31  H    5.660736   6.412129   5.683023   5.878410   5.133558
    32  H    7.474101   7.990466   7.007796   7.229603   6.884122
    33  H    6.988933   7.358240   6.838550   7.316822   6.932770
    34  H    5.389818   5.910996   4.680861   4.933098   4.866468
    35  H    6.232655   6.414417   5.679825   6.256723   6.323454
    36  H    6.269472   5.616272   6.526561   7.766999   8.002698
    37  H    5.332485   4.478818   5.885410   7.218805   7.487694
    38  H    7.291320   6.657225   7.958027   9.181602   9.187062
    39  H    6.875740   6.552216   7.423366   8.492825   8.330102
    40  H    6.031968   5.604906   6.865971   7.994682   7.837360
                   21         22         23         24         25
    21  F    0.000000
    22  F    2.181560   0.000000
    23  C    2.766729   4.211087   0.000000
    24  F    2.458745   4.309884   1.356864   0.000000
    25  F    2.658232   4.122463   1.349462   2.173770   0.000000
    26  F    4.092772   5.531608   1.351588   2.166398   2.171481
    27  C    5.058092   4.085479   4.597635   5.563139   4.871516
    28  O    4.329355   3.111689   4.455706   5.330497   4.474425
    29  H    6.934092   5.449769   7.166375   8.169468   6.826267
    30  H    8.494393   7.140140   8.330551   9.456360   8.027641
    31  H    7.136846   6.034417   6.672041   7.838492   6.474059
    32  H    8.568739   6.834672   8.764294   9.697040   8.730792
    33  H    8.645184   7.220898   8.284060   9.332405   8.384689
    34  H    6.259061   4.468446   6.737438   7.496193   6.818471
    35  H    7.554856   5.875604   7.702975   8.464806   8.010185
    36  H    8.765043   8.053701   7.609786   8.357244   8.471713
    37  H    8.033933   7.761022   6.488230   7.191032   7.485591
    38  H   10.097045   9.731285   8.350513   9.249208   9.172958
    39  H    9.554475   8.948363   8.025107   9.063215   8.640123
    40  H    8.887698   8.686923   6.968076   7.997463   7.674015
                   26         27         28         29         30
    26  F    0.000000
    27  C    5.233329   0.000000
    28  O    5.335745   1.230525   0.000000
    29  H    7.902504   3.475103   3.068382   0.000000
    30  H    8.856434   4.454711   4.450394   1.771111   0.000000
    31  H    7.135737   2.912643   3.085536   1.776490   1.766765
    32  H    9.448091   4.307912   4.388815   2.517242   2.437672
    33  H    8.742218   3.786176   4.320539   3.065466   2.488161
    34  H    7.601451   2.566801   2.360964   2.561112   3.756897
    35  H    8.401305   3.262578   3.649527   3.752140   4.288884
    36  H    7.649225   4.667156   5.831626   7.168624   7.237620
    37  H    6.322952   4.656411   5.809772   7.679477   7.919604
    38  H    8.001187   6.037113   7.267117   8.343122   8.041069
    39  H    7.848754   4.973505   6.174136   6.777379   6.324894
    40  H    6.559037   4.966278   6.156318   7.321277   7.101900
                   31         32         33         34         35
    31  H    0.000000
    32  H    3.061206   0.000000
    33  H    2.486981   1.761423   0.000000
    34  H    3.198359   2.501544   3.075709   0.000000
    35  H    3.870533   2.411742   2.521295   1.757153   0.000000
    36  H    6.116558   6.350202   5.079967   5.703137   4.575134
    37  H    6.506069   7.401248   6.112588   6.358894   5.639398
    38  H    6.893900   7.771279   6.165235   7.505764   6.530360
    39  H    5.301331   6.179142   4.500542   6.216434   5.289400
    40  H    5.752074   7.261896   5.647453   6.827918   6.238353
                   36         37         38         39         40
    36  H    0.000000
    37  H    1.760927   0.000000
    38  H    2.479374   2.480348   0.000000
    39  H    2.513538   3.070058   1.773634   0.000000
    40  H    3.070447   2.511306   1.773485   1.768497   0.000000
 Symmetry turned off by external request.
 Stoichiometry    C12H12F9N3O4(1+,2)
 Framework group  C1[X(C12H12F9N3O4)]
 Deg. of freedom   114
 Full point group                 C1      NOp   1
 Rotational constants (GHZ):      0.2908395      0.1442739      0.1138552
 Leave Link  202 at Sun Mar  3 17:37:43 2024, MaxMem=  5368709120 cpu:         0.1
 (Enter /home/k0335/k033513/app/g09/l301.exe)
 Standard basis: 6-31G(d,p) (6D, 7F)
 Ernie: Thresh=  0.10000D-02 Tol=  0.10000D-05 Strict=F.
   480 basis functions,   868 primitive gaussians,   480 cartesian basis functions
   109 alpha electrons      108 beta electrons
       nuclear repulsion energy      3385.6288934053 Hartrees.
 IExCor=20419 DFT=T Ex+Corr=CAM-B3LYP ExCW=0 ScaHFX=  1.000000
 ScaDFX=  1.000000  1.000000  1.000000  0.810000 ScalE2=  1.000000  1.000000
 IRadAn=      0 IRanWt=     -1 IRanGd=            0 ICorTp=0 IEmpDi=  4
  HFx wShort=  0.000000 wLong=  0.330000 cFull=  0.190000 cShort=  0.000000 cLong=  0.460000
  DFx wShort=  0.000000 wLong=  0.330000 cFull=  0.190000 cShort=  0.000000 cLong=  0.460000
 NAtoms=   40 NActive=   40 NUniq=   40 SFac= 1.00D+00 NAtFMM=   60 NAOKFM=F Big=F
 Integral buffers will be    131072 words long.
 Raffenetti 2 integral format.
 Two-electron integral symmetry is turned off.
 Using the following non-standard input for PCM:
 eps=4.9
 --- end of non-standard input.
 ------------------------------------------------------------------------------
 Polarizable Continuum Model (PCM)
 =================================
 Model                : PCM (using non-symmetric T matrix).
 Atomic radii         : UFF (Universal Force Field).
 Polarization charges : Total charges.
 Charge compensation  : None.
 Solution method      : On-the-fly selection.
 Cavity type          : Scaled VdW (van der Waals Surface) (Alpha=1.100).
 Cavity algorithm     : GePol (No added spheres)
                        Default sphere list used, NSphG=   40.
                        Lebedev-Laikov grids with approx.  5.0 points / Ang**2.
                        Smoothing algorithm: Karplus/York (Gamma=1.0000).
                        Polarization charges: spherical gaussians, with
                                              point-specific exponents (IZeta= 3).
                        Self-potential: point-specific (ISelfS= 7).
                        Self-field    : sphere-specific E.n sum rule (ISelfD= 2).
 Solvent              : Generic,
                        Eps                           =   4.900000
                        Eps(infinity)                 =   0.000000
                        RSolv                         =   0.000000 Ang.
                        Molar volume                  =   0.000000 cm**3/mol
                        Thermal expansion coefficient =   0.000000 K**-1
                        Absolute temperature          = 298.150000 K
                        Numeral density               =   0.000000 Ang**-3
                        Hydrogen bond acidity         =   0.000000
                        Hydrogen bond basicity        =   0.000000
                        Surface tension at interface  =   0.000000 (cal/mol)*Ang**-2
                        Carbon aromaticity            =   0.000000
                        Electronegative halogenicity  =   0.000000
 ------------------------------------------------------------------------------
 GePol: Number of generator spheres                  =      40
 GePol: Total number of spheres                      =      40
 GePol: Number of exposed spheres                    =      40 (100.00%)
 GePol: Number of points                             =    2961
 GePol: Average weight of points                     =       0.13
 GePol: Minimum weight of points                     =   0.22D-11
 GePol: Maximum weight of points                     =    0.20577
 GePol: Number of points with low weight             =     162
 GePol: Fraction of low-weight points (<1% of avg)   =       5.47%
 GePol: Cavity surface area                          =    380.312 Ang**2
 GePol: Cavity volume                                =    434.803 Ang**3
 Leave Link  301 at Sun Mar  3 17:37:43 2024, MaxMem=  5368709120 cpu:         0.7
 (Enter /home/k0335/k033513/app/g09/l302.exe)
 NPDir=0 NMtPBC=     1 NCelOv=     1 NCel=       1 NClECP=     1 NCelD=      1
         NCelK=      1 NCelE2=     1 NClLst=     1 CellRange=     0.0.
 One-electron integrals computed using PRISM.
 NBasis=   480 RedAO= T EigKep=  1.20D-03  NBF=   480
 NBsUse=   480 1.00D-06 EigRej= -1.00D+00 NBFU=   480
 Precomputing XC quadrature grid using
 IXCGrd= 4 IRadAn=           0 IRanWt=          -1 IRanGd=           0 AccXCQ= 0.00D+00.
 Generated NRdTot=       0 NPtTot=           0 NUsed=           0 NTot=          32
 NSgBfM=   474   474   474   474   474 MxSgAt=    40 MxSgA2=    40.
 Leave Link  302 at Sun Mar  3 17:37:43 2024, MaxMem=  5368709120 cpu:         7.9
 (Enter /home/k0335/k033513/app/g09/l303.exe)
 DipDrv:  MaxL=1.
 Leave Link  303 at Sun Mar  3 17:37:43 2024, MaxMem=  5368709120 cpu:         0.8
 (Enter /home/k0335/k033513/app/g09/l401.exe)
 ExpMin= 1.61D-01 ExpMax= 7.00D+03 ExpMxC= 1.05D+03 IAcc=1 IRadAn=         1 AccDes= 0.00D+00
 Harris functional with IExCor=20419 and IRadAn=       1 diagonalized for initial guess.
 HarFok:  IExCor=20419 AccDes= 0.00D+00 IRadAn=         1 IDoV= 1 UseB2=F ITyADJ=14
 ICtDFT=  3500011 ScaDFX=  1.000000  1.000000  1.000000  1.000000
 FoFCou: FMM=F IPFlag=           0 FMFlag=      100000 FMFlg1=           0
         NFxFlg=           0 DoJE=T BraDBF=F KetDBF=T FulRan=T
         wScrn=  0.000000 ICntrl=     500 IOpCl=  0 I1Cent=   200000004 NGrid=           0
         NMat0=    1 NMatS0=      1 NMatT0=    0 NMatD0=    1 NMtDS0=    0 NMtDT0=    0
 Symmetry not used in FoFCou.
 Harris En= -1769.57003383960    
 JPrj=0 DoOrth=F DoCkMO=F.
 Initial guess <Sx>= 0.0000 <Sy>= 0.0000 <Sz>= 0.5000 <S**2>= 0.7500 S= 0.5000
 Leave Link  401 at Sun Mar  3 17:37:44 2024, MaxMem=  5368709120 cpu:        10.4
 (Enter /home/k0335/k033513/app/g09/l502.exe)
 UHF open shell SCF:
 Using DIIS extrapolation, IDIIS=  1040.
 Two-electron integral symmetry not used.
 IVT=      724230 IEndB=      724230 NGot=  5368709120 MDV=  5368232411
 LenX=  5368232411 LenY=  5368001531
 Requested convergence on RMS density matrix=1.00D-08 within 128 cycles.
 Requested convergence on MAX density matrix=1.00D-06.
 Requested convergence on             energy=1.00D-06.
 No special actions if energy rises.
 Fock matrices will be formed incrementally for  20 cycles.

 Cycle   1  Pass 1  IDiag  1:
 FoFJK:  IHMeth= 1 ICntrl=       0 DoSepK=T KAlg= 0 I1Cent=   0 FoldK=F
 IRaf=         1 NMat=   1 IRICut=       1 DoRegI=T DoRafI=F ISym2E= 0.
 FoFCou: FMM=F IPFlag=           0 FMFlag=      100000 FMFlg1=           0
         NFxFlg=           0 DoJE=T BraDBF=F KetDBF=F FulRan=T
         wScrn=  0.000000 ICntrl=     500 IOpCl=  0 I1Cent=           0 NGrid=           0
         NMat0=    1 NMatS0=      1 NMatT0=    0 NMatD0=    1 NMtDS0=    0 NMtDT0=    0
 Symmetry not used in FoFCou.
 Inv3:  Mode=1 IEnd=    26302563.
 Iteration    1 A*A^-1 deviation from unit magnitude is 6.22D-15 for   2960.
 Iteration    1 A*A^-1 deviation from orthogonality  is 4.65D-15 for   2957    603.
 Iteration    1 A^-1*A deviation from unit magnitude is 7.22D-15 for   2950.
 Iteration    1 A^-1*A deviation from orthogonality  is 6.54D-14 for   2777   2739.
 E= -1826.56167905961    
 DIIS: error= 5.41D-02 at cycle   1 NSaved=   1.
 NSaved= 1 IEnMin= 1 EnMin= -1826.56167905961     IErMin= 1 ErrMin= 5.41D-02
 ErrMax= 5.41D-02  0.00D+00 EMaxC= 1.00D-01 BMatC= 6.77D+00 BMatP= 6.77D+00
 IDIUse=3 WtCom= 4.59D-01 WtEn= 5.41D-01
 Coeff-Com:  0.100D+01
 Coeff-En:   0.100D+01
 Coeff:      0.100D+01
 Gap=     0.566 Goal=   None    Shift=    0.000
 Gap=    -0.039 Goal=   None    Shift=    0.000
 GapD=   -0.039 DampG=0.250 DampE=0.500 DampFc=0.2500 IDamp=-1.
 Damping current iteration by 2.50D-01
 RMSDP=3.85D-03 MaxDP=1.82D-01              OVMax= 5.58D-01

 Cycle   2  Pass 1  IDiag  1:
 RMSU=  9.62D-04    CP:  1.00D+00
 E= -1826.82245971113     Delta-E=       -0.260780651517 Rises=F Damp=T
 DIIS: error= 4.28D-02 at cycle   2 NSaved=   2.
 NSaved= 2 IEnMin= 2 EnMin= -1826.82245971113     IErMin= 2 ErrMin= 4.28D-02
 ErrMax= 4.28D-02  0.00D+00 EMaxC= 1.00D-01 BMatC= 2.77D+00 BMatP= 6.77D+00
 IDIUse=3 WtCom= 5.72D-01 WtEn= 4.28D-01
 Coeff-Com: -0.138D+01 0.238D+01
 Coeff-En:   0.000D+00 0.100D+01
 Coeff:     -0.789D+00 0.179D+01
 Gap=     0.490 Goal=   None    Shift=    0.000
 Gap=     0.046 Goal=   None    Shift=    0.000
 RMSDP=2.18D-03 MaxDP=9.83D-02 DE=-2.61D-01 OVMax= 6.13D-01

 Cycle   3  Pass 1  IDiag  1:
 RMSU=  1.57D-03    CP:  1.00D+00  2.57D+00
 E= -1827.26376222558     Delta-E=       -0.441302514456 Rises=F Damp=F
 DIIS: error= 7.70D-03 at cycle   3 NSaved=   3.
 NSaved= 3 IEnMin= 3 EnMin= -1827.26376222558     IErMin= 3 ErrMin= 7.70D-03
 ErrMax= 7.70D-03  0.00D+00 EMaxC= 1.00D-01 BMatC= 4.56D-01 BMatP= 2.77D+00
 IDIUse=3 WtCom= 9.23D-01 WtEn= 7.70D-02
 Coeff-Com: -0.541D+00 0.953D+00 0.588D+00
 Coeff-En:   0.000D+00 0.000D+00 0.100D+01
 Coeff:     -0.499D+00 0.879D+00 0.619D+00
 Gap=     0.440 Goal=   None    Shift=    0.000
 Gap=     0.037 Goal=   None    Shift=    0.000
 RMSDP=9.37D-04 MaxDP=6.76D-02 DE=-4.41D-01 OVMax= 2.80D-01

 Cycle   4  Pass 1  IDiag  1:
 RMSU=  8.70D-04    CP:  1.00D+00  2.59D+00  7.79D-01
 E= -1827.34068964390     Delta-E=       -0.076927418315 Rises=F Damp=F
 DIIS: error= 3.48D-03 at cycle   4 NSaved=   4.
 NSaved= 4 IEnMin= 4 EnMin= -1827.34068964390     IErMin= 4 ErrMin= 3.48D-03
 ErrMax= 3.48D-03  0.00D+00 EMaxC= 1.00D-01 BMatC= 1.07D-01 BMatP= 4.56D-01
 IDIUse=3 WtCom= 9.65D-01 WtEn= 3.48D-02
 Coeff-Com: -0.997D-01 0.168D+00 0.311D+00 0.621D+00
 Coeff-En:   0.000D+00 0.000D+00 0.147D+00 0.853D+00
 Coeff:     -0.962D-01 0.162D+00 0.305D+00 0.629D+00
 Gap=     0.376 Goal=   None    Shift=    0.000
 Gap=     0.115 Goal=   None    Shift=    0.000
 RMSDP=4.60D-04 MaxDP=5.24D-02 DE=-7.69D-02 OVMax= 1.58D-01

 Cycle   5  Pass 1  IDiag  1:
 RMSU=  3.31D-04    CP:  1.00D+00  2.61D+00  8.85D-01  6.88D-01
 E= -1827.36486610199     Delta-E=       -0.024176458092 Rises=F Damp=F
 DIIS: error= 1.75D-03 at cycle   5 NSaved=   5.
 NSaved= 5 IEnMin= 5 EnMin= -1827.36486610199     IErMin= 5 ErrMin= 1.75D-03
 ErrMax= 1.75D-03  0.00D+00 EMaxC= 1.00D-01 BMatC= 1.99D-02 BMatP= 1.07D-01
 IDIUse=3 WtCom= 9.83D-01 WtEn= 1.75D-02
 Coeff-Com: -0.293D-01 0.403D-01 0.103D+00 0.354D+00 0.532D+00
 Coeff-En:   0.000D+00 0.000D+00 0.000D+00 0.000D+00 0.100D+01
 Coeff:     -0.288D-01 0.396D-01 0.101D+00 0.348D+00 0.540D+00
 Gap=     0.367 Goal=   None    Shift=    0.000
 Gap=     0.106 Goal=   None    Shift=    0.000
 RMSDP=1.64D-04 MaxDP=1.43D-02 DE=-2.42D-02 OVMax= 4.42D-02

 Cycle   6  Pass 1  IDiag  1:
 RMSU=  1.45D-04    CP:  1.00D+00  2.62D+00  8.83D-01  7.73D-01  9.88D-01
 E= -1827.37053170866     Delta-E=       -0.005665606669 Rises=F Damp=F
 DIIS: error= 6.87D-04 at cycle   6 NSaved=   6.
 NSaved= 6 IEnMin= 6 EnMin= -1827.37053170866     IErMin= 6 ErrMin= 6.87D-04
 ErrMax= 6.87D-04  0.00D+00 EMaxC= 1.00D-01 BMatC= 1.91D-03 BMatP= 1.99D-02
 IDIUse=3 WtCom= 9.93D-01 WtEn= 6.87D-03
 Coeff-Com: -0.109D-01 0.126D-01-0.354D-01 0.415D-02 0.149D+00 0.880D+00
 Coeff-En:   0.000D+00 0.000D+00 0.000D+00 0.000D+00 0.000D+00 0.100D+01
 Coeff:     -0.108D-01 0.125D-01-0.351D-01 0.412D-02 0.148D+00 0.881D+00
 Gap=     0.367 Goal=   None    Shift=    0.000
 Gap=     0.113 Goal=   None    Shift=    0.000
 RMSDP=1.31D-04 MaxDP=7.35D-03 DE=-5.67D-03 OVMax= 4.37D-02

 Cycle   7  Pass 1  IDiag  1:
 RMSU=  6.42D-05    CP:  1.00D+00  2.64D+00  8.79D-01  7.84D-01  1.28D+00
                    CP:  1.39D+00
 E= -1827.37255518800     Delta-E=       -0.002023479338 Rises=F Damp=F
 DIIS: error= 4.83D-04 at cycle   7 NSaved=   7.
 NSaved= 7 IEnMin= 7 EnMin= -1827.37255518800     IErMin= 7 ErrMin= 4.83D-04
 ErrMax= 4.83D-04  0.00D+00 EMaxC= 1.00D-01 BMatC= 9.23D-04 BMatP= 1.91D-03
 IDIUse=3 WtCom= 9.95D-01 WtEn= 4.83D-03
 Coeff-Com: -0.234D-02 0.266D-02-0.577D-01-0.114D+00-0.915D-01 0.524D+00
 Coeff-Com:  0.739D+00
 Coeff-En:   0.000D+00 0.000D+00 0.000D+00 0.000D+00 0.000D+00 0.000D+00
 Coeff-En:   0.100D+01
 Coeff:     -0.233D-02 0.264D-02-0.574D-01-0.114D+00-0.911D-01 0.522D+00
 Coeff:      0.740D+00
 Gap=     0.367 Goal=   None    Shift=    0.000
 Gap=     0.119 Goal=   None    Shift=    0.000
 RMSDP=9.90D-05 MaxDP=5.51D-03 DE=-2.02D-03 OVMax= 3.42D-02

 Cycle   8  Pass 1  IDiag  1:
 RMSU=  3.97D-05    CP:  9.99D-01  2.64D+00  8.71D-01  7.92D-01  1.46D+00
                    CP:  1.83D+00  1.26D+00
 E= -1827.37361803013     Delta-E=       -0.001062842135 Rises=F Damp=F
 DIIS: error= 4.04D-04 at cycle   8 NSaved=   8.
 NSaved= 8 IEnMin= 8 EnMin= -1827.37361803013     IErMin= 8 ErrMin= 4.04D-04
 ErrMax= 4.04D-04  0.00D+00 EMaxC= 1.00D-01 BMatC= 2.10D-04 BMatP= 9.23D-04
 IDIUse=3 WtCom= 9.96D-01 WtEn= 4.04D-03
 Coeff-Com: -0.307D-02 0.535D-02-0.387D-02-0.291D-01-0.520D-01-0.110D+00
 Coeff-Com:  0.225D+00 0.968D+00
 Coeff-En:   0.000D+00 0.000D+00 0.000D+00 0.000D+00 0.000D+00 0.000D+00
 Coeff-En:   0.000D+00 0.100D+01
 Coeff:     -0.305D-02 0.533D-02-0.386D-02-0.290D-01-0.518D-01-0.110D+00
 Coeff:      0.224D+00 0.968D+00
 Gap=     0.367 Goal=   None    Shift=    0.000
 Gap=     0.120 Goal=   None    Shift=    0.000
 RMSDP=7.21D-05 MaxDP=5.16D-03 DE=-1.06D-03 OVMax= 2.48D-02

 Cycle   9  Pass 1  IDiag  1:
 RMSU=  2.20D-05    CP:  9.99D-01  2.64D+00  8.63D-01  7.87D-01  1.57D+00
                    CP:  2.10D+00  1.81D+00  1.59D+00
 E= -1827.37409360288     Delta-E=       -0.000475572753 Rises=F Damp=F
 DIIS: error= 2.97D-04 at cycle   9 NSaved=   9.
 NSaved= 9 IEnMin= 9 EnMin= -1827.37409360288     IErMin= 9 ErrMin= 2.97D-04
 ErrMax= 2.97D-04  0.00D+00 EMaxC= 1.00D-01 BMatC= 1.14D-04 BMatP= 2.10D-04
 IDIUse=3 WtCom= 9.97D-01 WtEn= 2.97D-03
 Coeff-Com:  0.955D-04 0.303D-03 0.223D-01 0.323D-01 0.313D-01-0.244D+00
 Coeff-Com: -0.179D+00 0.435D+00 0.902D+00
 Coeff-En:   0.000D+00 0.000D+00 0.000D+00 0.000D+00 0.000D+00 0.000D+00
 Coeff-En:   0.000D+00 0.000D+00 0.100D+01
 Coeff:      0.952D-04 0.302D-03 0.222D-01 0.322D-01 0.312D-01-0.243D+00
 Coeff:     -0.179D+00 0.433D+00 0.902D+00
 Gap=     0.367 Goal=   None    Shift=    0.000
 Gap=     0.120 Goal=   None    Shift=    0.000
 RMSDP=5.34D-05 MaxDP=3.87D-03 DE=-4.76D-04 OVMax= 1.91D-02

 Cycle  10  Pass 1  IDiag  1:
 RMSU=  1.42D-05    CP:  9.99D-01  2.64D+00  8.56D-01  7.84D-01  1.62D+00
                    CP:  2.27D+00  2.18D+00  2.31D+00  1.70D+00
 E= -1827.37434915356     Delta-E=       -0.000255550674 Rises=F Damp=F
 DIIS: error= 2.27D-04 at cycle  10 NSaved=  10.
 NSaved=10 IEnMin=10 EnMin= -1827.37434915356     IErMin=10 ErrMin= 2.27D-04
 ErrMax= 2.27D-04  0.00D+00 EMaxC= 1.00D-01 BMatC= 5.34D-05 BMatP= 1.14D-04
 IDIUse=3 WtCom= 9.98D-01 WtEn= 2.27D-03
 Coeff-Com:  0.245D-02-0.373D-02 0.447D-02 0.839D-02 0.385D-01 0.286D-02
 Coeff-Com: -0.881D-01-0.254D+00 0.475D-01 0.124D+01
 Coeff-En:   0.000D+00 0.000D+00 0.000D+00 0.000D+00 0.000D+00 0.000D+00
 Coeff-En:   0.000D+00 0.000D+00 0.000D+00 0.100D+01
 Coeff:      0.244D-02-0.372D-02 0.446D-02 0.838D-02 0.384D-01 0.285D-02
 Coeff:     -0.879D-01-0.254D+00 0.474D-01 0.124D+01
 Gap=     0.367 Goal=   None    Shift=    0.000
 Gap=     0.121 Goal=   None    Shift=    0.000
 RMSDP=4.92D-05 MaxDP=3.70D-03 DE=-2.56D-04 OVMax= 1.74D-02

 Cycle  11  Pass 1  IDiag  1:
 RMSU=  9.40D-06    CP:  9.99D-01  2.64D+00  8.49D-01  7.84D-01  1.66D+00
                    CP:  2.38D+00  2.47D+00  2.97D+00  2.76D+00  2.10D+00
 E= -1827.37452780409     Delta-E=       -0.000178650530 Rises=F Damp=F
 DIIS: error= 1.61D-04 at cycle  11 NSaved=  11.
 NSaved=11 IEnMin=11 EnMin= -1827.37452780409     IErMin=11 ErrMin= 1.61D-04
 ErrMax= 1.61D-04  0.00D+00 EMaxC= 1.00D-01 BMatC= 4.62D-05 BMatP= 5.34D-05
 IDIUse=3 WtCom= 9.98D-01 WtEn= 1.61D-03
 Coeff-Com:  0.137D-02-0.202D-02-0.743D-02-0.126D-01 0.264D-01 0.131D+00
 Coeff-Com:  0.510D-01-0.404D+00-0.523D+00 0.761D+00 0.979D+00
 Coeff-En:   0.000D+00 0.000D+00 0.000D+00 0.000D+00 0.000D+00 0.000D+00
 Coeff-En:   0.000D+00 0.000D+00 0.000D+00 0.000D+00 0.100D+01
 Coeff:      0.136D-02-0.202D-02-0.742D-02-0.126D-01 0.263D-01 0.131D+00
 Coeff:      0.509D-01-0.404D+00-0.522D+00 0.760D+00 0.979D+00
 Gap=     0.367 Goal=   None    Shift=    0.000
 Gap=     0.122 Goal=   None    Shift=    0.000
 RMSDP=4.70D-05 MaxDP=3.59D-03 DE=-1.79D-04 OVMax= 1.59D-02

 Cycle  12  Pass 1  IDiag  1:
 RMSU=  3.13D-05    CP:  9.99D-01  2.64D+00  8.42D-01  7.82D-01  1.68D+00
                    CP:  2.46D+00  2.71D+00  3.00D+00  3.00D+00  3.00D+00
                    CP:  1.88D+00
 E= -1827.37465765245     Delta-E=       -0.000129848358 Rises=F Damp=F
 DIIS: error= 1.06D-04 at cycle  12 NSaved=  12.
 NSaved=12 IEnMin=12 EnMin= -1827.37465765245     IErMin=12 ErrMin= 1.06D-04
 ErrMax= 1.06D-04  0.00D+00 EMaxC= 1.00D-01 BMatC= 2.45D-05 BMatP= 4.62D-05
 IDIUse=3 WtCom= 9.99D-01 WtEn= 1.06D-03
 Coeff-Com:  0.783D-03-0.954D-03-0.211D-02-0.102D-01 0.634D-02 0.505D-02
 Coeff-Com:  0.722D-01 0.182D-01-0.191D+00-0.428D+00 0.170D+00 0.136D+01
 Coeff-En:   0.000D+00 0.000D+00 0.000D+00 0.000D+00 0.000D+00 0.000D+00
 Coeff-En:   0.000D+00 0.000D+00 0.000D+00 0.000D+00 0.000D+00 0.100D+01
 Coeff:      0.782D-03-0.953D-03-0.211D-02-0.102D-01 0.634D-02 0.504D-02
 Coeff:      0.721D-01 0.182D-01-0.191D+00-0.428D+00 0.170D+00 0.136D+01
 Gap=     0.367 Goal=   None    Shift=    0.000
 Gap=     0.123 Goal=   None    Shift=    0.000
 RMSDP=5.09D-05 MaxDP=3.39D-03 DE=-1.30D-04 OVMax= 1.75D-02

 Cycle  13  Pass 1  IDiag  1:
 RMSU=  1.64D-05    CP:  9.99D-01  2.64D+00  8.34D-01  7.81D-01  1.70D+00
                    CP:  2.54D+00  2.93D+00  3.00D+00  3.00D+00  3.00D+00
                    CP:  3.00D+00  2.25D+00
 E= -1827.37475051654     Delta-E=       -0.000092864093 Rises=F Damp=F
 DIIS: error= 7.79D-05 at cycle  13 NSaved=  13.
 NSaved=13 IEnMin=13 EnMin= -1827.37475051654     IErMin=13 ErrMin= 7.79D-05
 ErrMax= 7.79D-05  0.00D+00 EMaxC= 1.00D-01 BMatC= 2.16D-05 BMatP= 2.45D-05
 IDIUse=1 WtCom= 1.00D+00 WtEn= 0.00D+00
 Coeff-Com:  0.260D-03-0.225D-03 0.385D-02 0.129D-03 0.894D-02-0.690D-01
 Coeff-Com:  0.242D-01 0.150D+00 0.125D+00-0.455D+00-0.436D+00 0.902D+00
 Coeff-Com:  0.745D+00
 Coeff:      0.260D-03-0.225D-03 0.385D-02 0.129D-03 0.894D-02-0.690D-01
 Coeff:      0.242D-01 0.150D+00 0.125D+00-0.455D+00-0.436D+00 0.902D+00
 Coeff:      0.745D+00
 Gap=     0.367 Goal=   None    Shift=    0.000
 Gap=     0.123 Goal=   None    Shift=    0.000
 RMSDP=2.37D-05 MaxDP=1.66D-03 DE=-9.29D-05 OVMax= 8.39D-03

 Cycle  14  Pass 1  IDiag  1:
 RMSU=  7.84D-06    CP:  9.99D-01  2.64D+00  8.30D-01  7.81D-01  1.70D+00
                    CP:  2.57D+00  3.00D+00  3.00D+00  3.00D+00  3.00D+00
                    CP:  3.00D+00  2.80D+00  1.65D+00
 E= -1827.37478368055     Delta-E=       -0.000033164006 Rises=F Damp=F
 DIIS: error= 7.78D-05 at cycle  14 NSaved=  14.
 NSaved=14 IEnMin=14 EnMin= -1827.37478368055     IErMin=14 ErrMin= 7.78D-05
 ErrMax= 7.78D-05  0.00D+00 EMaxC= 1.00D-01 BMatC= 1.36D-05 BMatP= 2.16D-05
 IDIUse=1 WtCom= 1.00D+00 WtEn= 0.00D+00
 Coeff-Com:  0.459D-03-0.614D-03 0.421D-02 0.348D-02 0.139D-01-0.592D-01
 Coeff-Com: -0.162D-02 0.483D-01 0.151D+00-0.559D-01-0.384D+00 0.191D+00
 Coeff-Com:  0.569D-01 0.103D+01
 Coeff:      0.459D-03-0.614D-03 0.421D-02 0.348D-02 0.139D-01-0.592D-01
 Coeff:     -0.162D-02 0.483D-01 0.151D+00-0.559D-01-0.384D+00 0.191D+00
 Coeff:      0.569D-01 0.103D+01
 Gap=     0.368 Goal=   None    Shift=    0.000
 Gap=     0.123 Goal=   None    Shift=    0.000
 RMSDP=1.82D-05 MaxDP=1.38D-03 DE=-3.32D-05 OVMax= 8.07D-03

 Cycle  15  Pass 1  IDiag  1:
 RMSU=  6.85D-06    CP:  9.99D-01  2.64D+00  8.27D-01  7.82D-01  1.71D+00
                    CP:  2.60D+00  3.00D+00  3.00D+00  3.00D+00  3.00D+00
                    CP:  3.00D+00  3.00D+00  2.19D+00  2.04D+00
 E= -1827.37480610850     Delta-E=       -0.000022427950 Rises=F Damp=F
 DIIS: error= 7.45D-05 at cycle  15 NSaved=  15.
 NSaved=15 IEnMin=15 EnMin= -1827.37480610850     IErMin=15 ErrMin= 7.45D-05
 ErrMax= 7.45D-05  0.00D+00 EMaxC= 1.00D-01 BMatC= 1.20D-05 BMatP= 1.36D-05
 IDIUse=1 WtCom= 1.00D+00 WtEn= 0.00D+00
 Coeff-Com:  0.495D-03-0.686D-03 0.223D-02 0.156D-02 0.139D-01-0.308D-01
 Coeff-Com:  0.762D-02-0.303D-01 0.622D-01 0.877D-01-0.162D+00 0.483D-01
 Coeff-Com: -0.387D+00 0.596D+00 0.791D+00
 Coeff:      0.495D-03-0.686D-03 0.223D-02 0.156D-02 0.139D-01-0.308D-01
 Coeff:      0.762D-02-0.303D-01 0.622D-01 0.877D-01-0.162D+00 0.483D-01
 Coeff:     -0.387D+00 0.596D+00 0.791D+00
 Gap=     0.368 Goal=   None    Shift=    0.000
 Gap=     0.123 Goal=   None    Shift=    0.000
 RMSDP=1.30D-05 MaxDP=9.57D-04 DE=-2.24D-05 OVMax= 6.51D-03

 Cycle  16  Pass 1  IDiag  1:
 RMSU=  2.58D-06    CP:  9.99D-01  2.64D+00  8.25D-01  7.83D-01  1.71D+00
                    CP:  2.61D+00  3.00D+00  3.00D+00  3.00D+00  3.00D+00
                    CP:  3.00D+00  3.00D+00  2.58D+00  2.91D+00  2.14D+00
 E= -1827.37482174828     Delta-E=       -0.000015639780 Rises=F Damp=F
 DIIS: error= 7.20D-05 at cycle  16 NSaved=  16.
 NSaved=16 IEnMin=16 EnMin= -1827.37482174828     IErMin=16 ErrMin= 7.20D-05
 ErrMax= 7.20D-05  0.00D+00 EMaxC= 1.00D-01 BMatC= 1.07D-05 BMatP= 1.20D-05
 IDIUse=1 WtCom= 1.00D+00 WtEn= 0.00D+00
 Coeff-Com:  0.400D-03-0.549D-03 0.100D-02-0.452D-03 0.112D-01-0.226D-01
 Coeff-Com:  0.220D-01-0.266D-01 0.149D-01 0.714D-02-0.712D-01 0.220D+00
 Coeff-Com: -0.290D+00 0.132D-01-0.412D+00 0.153D+01
 Coeff:      0.400D-03-0.549D-03 0.100D-02-0.452D-03 0.112D-01-0.226D-01
 Coeff:      0.220D-01-0.266D-01 0.149D-01 0.714D-02-0.712D-01 0.220D+00
 Coeff:     -0.290D+00 0.132D-01-0.412D+00 0.153D+01
 Gap=     0.368 Goal=   None    Shift=    0.000
 Gap=     0.123 Goal=   None    Shift=    0.000
 RMSDP=1.76D-05 MaxDP=1.27D-03 DE=-1.56D-05 OVMax= 9.37D-03

 Cycle  17  Pass 1  IDiag  1:
 RMSU=  1.03D-05    CP:  9.99D-01  2.64D+00  8.22D-01  7.85D-01  1.70D+00
                    CP:  2.62D+00  3.00D+00  3.00D+00  3.00D+00  3.00D+00
                    CP:  3.00D+00  3.00D+00  3.00D+00  3.00D+00  3.00D+00
                    CP:  2.46D+00
 E= -1827.37484230738     Delta-E=       -0.000020559106 Rises=F Damp=F
 DIIS: error= 6.96D-05 at cycle  17 NSaved=  17.
 NSaved=17 IEnMin=17 EnMin= -1827.37484230738     IErMin=17 ErrMin= 6.96D-05
 ErrMax= 6.96D-05  0.00D+00 EMaxC= 1.00D-01 BMatC= 1.04D-05 BMatP= 1.07D-05
 IDIUse=1 WtCom= 1.00D+00 WtEn= 0.00D+00
 Coeff-Com:  0.290D-03-0.382D-03 0.164D-02-0.231D-03 0.984D-02-0.362D-01
 Coeff-Com:  0.218D-01 0.224D-01 0.464D-01-0.103D+00-0.172D+00 0.344D+00
 Coeff-Com:  0.491D-01 0.111D+00-0.137D+01 0.668D+00 0.140D+01
 Coeff:      0.290D-03-0.382D-03 0.164D-02-0.231D-03 0.984D-02-0.362D-01
 Coeff:      0.218D-01 0.224D-01 0.464D-01-0.103D+00-0.172D+00 0.344D+00
 Coeff:      0.491D-01 0.111D+00-0.137D+01 0.668D+00 0.140D+01
 Gap=     0.369 Goal=   None    Shift=    0.000
 Gap=     0.123 Goal=   None    Shift=    0.000
 RMSDP=2.22D-05 MaxDP=1.56D-03 DE=-2.06D-05 OVMax= 1.21D-02

 Cycle  18  Pass 1  IDiag  1:
 RMSU=  1.05D-05    CP:  9.99D-01  2.64D+00  8.19D-01  7.87D-01  1.70D+00
                    CP:  2.64D+00  3.00D+00  3.00D+00  3.00D+00  3.00D+00
                    CP:  3.00D+00  3.00D+00  3.00D+00  3.00D+00  3.00D+00
                    CP:  3.00D+00  2.77D+00
 E= -1827.37486754344     Delta-E=       -0.000025236062 Rises=F Damp=F
 DIIS: error= 6.67D-05 at cycle  18 NSaved=  18.
 NSaved=18 IEnMin=18 EnMin= -1827.37486754344     IErMin=18 ErrMin= 6.67D-05
 ErrMax= 6.67D-05  0.00D+00 EMaxC= 1.00D-01 BMatC= 1.00D-05 BMatP= 1.04D-05
 IDIUse=1 WtCom= 1.00D+00 WtEn= 0.00D+00
 Coeff-Com:  0.208D-03-0.252D-03 0.339D-02 0.234D-02 0.125D-01-0.496D-01
 Coeff-Com:  0.481D-02 0.514D-01 0.111D+00-0.780D-01-0.298D+00 0.225D+00
 Coeff-Com:  0.194D+00 0.696D+00-0.911D+00-0.127D+01 0.111D+00 0.219D+01
 Coeff:      0.208D-03-0.252D-03 0.339D-02 0.234D-02 0.125D-01-0.496D-01
 Coeff:      0.481D-02 0.514D-01 0.111D+00-0.780D-01-0.298D+00 0.225D+00
 Coeff:      0.194D+00 0.696D+00-0.911D+00-0.127D+01 0.111D+00 0.219D+01
 Gap=     0.370 Goal=   None    Shift=    0.000
 Gap=     0.123 Goal=   None    Shift=    0.000
 RMSDP=4.44D-05 MaxDP=2.98D-03 DE=-2.52D-05 OVMax= 2.46D-02

 Cycle  19  Pass 1  IDiag  1:
 RMSU=  3.52D-05    CP:  9.99D-01  2.64D+00  8.13D-01  7.93D-01  1.68D+00
                    CP:  2.66D+00  3.00D+00  3.00D+00  3.00D+00  3.00D+00
                    CP:  3.00D+00  3.00D+00  3.00D+00  3.00D+00  3.00D+00
                    CP:  3.00D+00  3.00D+00  2.97D+00
 E= -1827.37491598053     Delta-E=       -0.000048437085 Rises=F Damp=F
 DIIS: error= 6.12D-05 at cycle  19 NSaved=  19.
 NSaved=19 IEnMin=19 EnMin= -1827.37491598053     IErMin=19 ErrMin= 6.12D-05
 ErrMax= 6.12D-05  0.00D+00 EMaxC= 1.00D-01 BMatC= 9.46D-06 BMatP= 1.00D-05
 IDIUse=1 WtCom= 1.00D+00 WtEn= 0.00D+00
 Coeff-Com:  0.484D-03-0.648D-03 0.258D-02 0.152D-02 0.127D-01-0.342D-01
 Coeff-Com:  0.227D-02 0.257D-02 0.745D-01 0.372D-01-0.194D+00 0.405D-01
 Coeff-Com: -0.141D+00 0.721D+00 0.450D+00-0.113D+01-0.263D+01 0.240D+01
 Coeff-Com:  0.138D+01
 Coeff:      0.484D-03-0.648D-03 0.258D-02 0.152D-02 0.127D-01-0.342D-01
 Coeff:      0.227D-02 0.257D-02 0.745D-01 0.372D-01-0.194D+00 0.405D-01
 Coeff:     -0.141D+00 0.721D+00 0.450D+00-0.113D+01-0.263D+01 0.240D+01
 Coeff:      0.138D+01
 Gap=     0.371 Goal=   None    Shift=    0.000
 Gap=     0.123 Goal=   None    Shift=    0.000
 RMSDP=7.33D-05 MaxDP=5.02D-03 DE=-4.84D-05 OVMax= 4.07D-02

 Cycle  20  Pass 1  IDiag  1:
 RMSU=  3.39D-05    CP:  9.99D-01  2.64D+00  8.03D-01  8.01D-01  1.66D+00
                    CP:  2.70D+00  3.00D+00  3.00D+00  3.00D+00  3.00D+00
                    CP:  3.00D+00  3.00D+00  3.00D+00  3.00D+00  3.00D+00
                    CP:  3.00D+00  3.00D+00  3.00D+00  2.75D+00
 E= -1827.37499038188     Delta-E=       -0.000074401347 Rises=F Damp=F
 DIIS: error= 5.19D-05 at cycle  20 NSaved=  20.
 NSaved=20 IEnMin=20 EnMin= -1827.37499038188     IErMin=20 ErrMin= 5.19D-05
 ErrMax= 5.19D-05  0.00D+00 EMaxC= 1.00D-01 BMatC= 8.56D-06 BMatP= 9.46D-06
 IDIUse=1 WtCom= 1.00D+00 WtEn= 0.00D+00
 Coeff-Com:  0.691D-03-0.947D-03 0.191D-02 0.788D-03 0.125D-01-0.218D-01
 Coeff-Com: -0.442D-03-0.194D-01 0.416D-01 0.108D+00-0.112D+00-0.331D-01
 Coeff-Com: -0.349D+00 0.589D+00 0.977D+00-0.565D+00-0.330D+01 0.180D+01
 Coeff-Com:  0.146D+01 0.411D+00
 Coeff:      0.691D-03-0.947D-03 0.191D-02 0.788D-03 0.125D-01-0.218D-01
 Coeff:     -0.442D-03-0.194D-01 0.416D-01 0.108D+00-0.112D+00-0.331D-01
 Coeff:     -0.349D+00 0.589D+00 0.977D+00-0.565D+00-0.330D+01 0.180D+01
 Coeff:      0.146D+01 0.411D+00
 Gap=     0.370 Goal=   None    Shift=    0.000
 Gap=     0.124 Goal=   None    Shift=    0.000
 RMSDP=3.74D-05 MaxDP=2.46D-03 DE=-7.44D-05 OVMax= 2.09D-02

 Cycle  21  Pass 1  IDiag  1:
 Restarting incremental Fock formation.
 E= -1827.37502577997     Delta-E=       -0.000035398095 Rises=F Damp=F
 DIIS: error= 4.94D-05 at cycle  21 NSaved=  20.
 NSaved=20 IEnMin=20 EnMin= -1827.37502577997     IErMin=20 ErrMin= 4.94D-05
 ErrMax= 4.94D-05  0.00D+00 EMaxC= 1.00D-01 BMatC= 7.52D-06 BMatP= 8.56D-06
 IDIUse=1 WtCom= 1.00D+00 WtEn= 0.00D+00
 Coeff-Com:  0.134D-03 0.243D-02 0.456D-03 0.859D-02-0.292D-01-0.749D-03
 Coeff-Com:  0.660D-01 0.389D-01-0.101D+00-0.186D+00 0.262D+00 0.123D+00
 Coeff-Com:  0.235D+00-0.105D+01-0.385D+00 0.534D+00 0.105D+01-0.225D+00
 Coeff-Com: -0.167D+01 0.232D+01
 Coeff:      0.134D-03 0.243D-02 0.456D-03 0.859D-02-0.292D-01-0.749D-03
 Coeff:      0.660D-01 0.389D-01-0.101D+00-0.186D+00 0.262D+00 0.123D+00
 Coeff:      0.235D+00-0.105D+01-0.385D+00 0.534D+00 0.105D+01-0.225D+00
 Coeff:     -0.167D+01 0.232D+01
 Gap=     0.370 Goal=   None    Shift=    0.000
 Gap=     0.123 Goal=   None    Shift=    0.000
 RMSDP=3.27D-05 MaxDP=2.14D-03 DE=-3.54D-05 OVMax= 1.86D-02

 Cycle  22  Pass 1  IDiag  1:
 RMSU=  3.27D-05    CP:  1.00D+00
 E= -1827.37505583647     Delta-E=       -0.000030056494 Rises=F Damp=F
 DIIS: error= 4.28D-05 at cycle  22 NSaved=  20.
 NSaved=20 IEnMin=20 EnMin= -1827.37505583647     IErMin=20 ErrMin= 4.28D-05
 ErrMax= 4.28D-05  0.00D+00 EMaxC= 1.00D-01 BMatC= 7.18D-06 BMatP= 7.52D-06
 IDIUse=1 WtCom= 1.00D+00 WtEn= 0.00D+00
 Coeff-Com:  0.205D-02 0.703D-03 0.860D-02-0.314D-01 0.395D-02 0.439D-01
 Coeff-Com:  0.538D-01-0.839D-01-0.185D+00 0.238D+00 0.137D+00 0.284D+00
 Coeff-Com: -0.102D+01-0.418D+00 0.597D+00 0.106D+01-0.686D+00-0.167D+01
 Coeff-Com:  0.177D+01 0.896D+00
 Coeff:      0.205D-02 0.703D-03 0.860D-02-0.314D-01 0.395D-02 0.439D-01
 Coeff:      0.538D-01-0.839D-01-0.185D+00 0.238D+00 0.137D+00 0.284D+00
 Coeff:     -0.102D+01-0.418D+00 0.597D+00 0.106D+01-0.686D+00-0.167D+01
 Coeff:      0.177D+01 0.896D+00
 Gap=     0.369 Goal=   None    Shift=    0.000
 Gap=     0.124 Goal=   None    Shift=    0.000
 RMSDP=5.65D-05 MaxDP=3.74D-03 DE=-3.01D-05 OVMax= 3.19D-02

 Cycle  23  Pass 1  IDiag  1:
 RMSU=  4.41D-06    CP:  1.00D+00  2.72D+00
 E= -1827.37510438985     Delta-E=       -0.000048553387 Rises=F Damp=F
 DIIS: error= 4.23D-05 at cycle  23 NSaved=  20.
 NSaved=20 IEnMin=20 EnMin= -1827.37510438985     IErMin=20 ErrMin= 4.23D-05
 ErrMax= 4.23D-05  0.00D+00 EMaxC= 1.00D-01 BMatC= 5.76D-06 BMatP= 7.18D-06
 IDIUse=1 WtCom= 1.00D+00 WtEn= 0.00D+00
 Coeff-Com: -0.179D-02 0.709D-02-0.115D-01 0.204D-01-0.152D-01 0.696D-02
 Coeff-Com: -0.324D-02-0.909D-01 0.128D+00 0.115D-02 0.377D+00-0.495D+00
 Coeff-Com: -0.730D+00-0.489D+00 0.179D+01 0.252D+00-0.828D+00-0.900D+00
 Coeff-Com: -0.383D-01 0.202D+01
 Coeff:     -0.179D-02 0.709D-02-0.115D-01 0.204D-01-0.152D-01 0.696D-02
 Coeff:     -0.324D-02-0.909D-01 0.128D+00 0.115D-02 0.377D+00-0.495D+00
 Coeff:     -0.730D+00-0.489D+00 0.179D+01 0.252D+00-0.828D+00-0.900D+00
 Coeff:     -0.383D-01 0.202D+01
 Gap=     0.368 Goal=   None    Shift=    0.000
 Gap=     0.124 Goal=   None    Shift=    0.000
 RMSDP=5.90D-05 MaxDP=3.97D-03 DE=-4.86D-05 OVMax= 3.38D-02

 Cycle  24  Pass 1  IDiag  1:
 RMSU=  4.99D-05    CP:  1.00D+00  3.00D+00  1.63D+00
 E= -1827.37515209922     Delta-E=       -0.000047709371 Rises=F Damp=F
 DIIS: error= 4.15D-05 at cycle  24 NSaved=  20.
 NSaved=20 IEnMin=20 EnMin= -1827.37515209922     IErMin=20 ErrMin= 4.15D-05
 ErrMax= 4.15D-05  0.00D+00 EMaxC= 1.00D-01 BMatC= 4.87D-06 BMatP= 5.76D-06
 IDIUse=1 WtCom= 1.00D+00 WtEn= 0.00D+00
 Coeff-Com:  0.695D-02-0.185D-02 0.136D-01-0.470D-01-0.119D-02 0.131D+00
 Coeff-Com: -0.644D-01-0.123D+00-0.187D+00 0.656D+00 0.674D+00-0.125D+01
 Coeff-Com: -0.267D+01 0.229D+01 0.239D+01 0.103D+01-0.390D+01-0.288D+01
 Coeff-Com:  0.239D+01 0.255D+01
 Coeff:      0.695D-02-0.185D-02 0.136D-01-0.470D-01-0.119D-02 0.131D+00
 Coeff:     -0.644D-01-0.123D+00-0.187D+00 0.656D+00 0.674D+00-0.125D+01
 Coeff:     -0.267D+01 0.229D+01 0.239D+01 0.103D+01-0.390D+01-0.288D+01
 Coeff:      0.239D+01 0.255D+01
 Gap=     0.364 Goal=   None    Shift=    0.000
 Gap=     0.125 Goal=   None    Shift=    0.000
 RMSDP=1.88D-04 MaxDP=1.27D-02 DE=-4.77D-05 OVMax= 1.07D-01

 Cycle  25  Pass 1  IDiag  1:
 RMSU=  8.93D-05    CP:  1.00D+00  3.00D+00  3.00D+00  3.00D+00
 E= -1827.37526031659     Delta-E=       -0.000108217369 Rises=F Damp=F
 DIIS: error= 6.47D-05 at cycle  25 NSaved=  20.
 NSaved=20 IEnMin=20 EnMin= -1827.37526031659     IErMin=19 ErrMin= 4.15D-05
 ErrMax= 6.47D-05  0.00D+00 EMaxC= 1.00D-01 BMatC= 1.37D-05 BMatP= 4.87D-06
 IDIUse=1 WtCom= 1.00D+00 WtEn= 0.00D+00
 Coeff-Com:  0.558D-02-0.167D-01 0.256D-01-0.347D-01 0.772D-01-0.401D-01
 Coeff-Com: -0.931D-01 0.101D-02 0.344D+00 0.451D+00-0.124D+01-0.186D+01
 Coeff-Com:  0.179D+01 0.244D+01 0.106D+00-0.205D+01-0.964D+00-0.237D+00
 Coeff-Com:  0.162D+01 0.674D+00
 Coeff:      0.558D-02-0.167D-01 0.256D-01-0.347D-01 0.772D-01-0.401D-01
 Coeff:     -0.931D-01 0.101D-02 0.344D+00 0.451D+00-0.124D+01-0.186D+01
 Coeff:      0.179D+01 0.244D+01 0.106D+00-0.205D+01-0.964D+00-0.237D+00
 Coeff:      0.162D+01 0.674D+00
 Gap=     0.365 Goal=   None    Shift=    0.000
 Gap=     0.122 Goal=   None    Shift=    0.000
 RMSDP=4.83D-05 MaxDP=3.11D-03 DE=-1.08D-04 OVMax= 2.52D-02

 Cycle  26  Pass 1  IDiag  1:
 RMSU=  1.55D-05    CP:  1.00D+00  3.00D+00  3.00D+00  3.00D+00  4.88D-01
 E= -1827.37524390042     Delta-E=        0.000016416173 Rises=F Damp=F
 DIIS: error= 5.94D-05 at cycle  26 NSaved=  20.
 NSaved=20 IEnMin=19 EnMin= -1827.37526031659     IErMin=18 ErrMin= 4.15D-05
 ErrMax= 5.94D-05  0.00D+00 EMaxC= 1.00D-01 BMatC= 1.39D-05 BMatP= 4.87D-06
 IDIUse=1 WtCom= 1.00D+00 WtEn= 0.00D+00
 Coeff-Com: -0.934D-02 0.228D-01-0.308D-01 0.454D-01-0.366D-01 0.161D-01
 Coeff-Com: -0.542D-01 0.849D-01 0.175D+00-0.207D+00-0.914D+00 0.517D+00
 Coeff-Com:  0.789D+00-0.374D+00 0.447D+00-0.915D-01-0.100D+01 0.107D+00
 Coeff-Com:  0.778D+00 0.738D+00
 Coeff:     -0.934D-02 0.228D-01-0.308D-01 0.454D-01-0.366D-01 0.161D-01
 Coeff:     -0.542D-01 0.849D-01 0.175D+00-0.207D+00-0.914D+00 0.517D+00
 Coeff:      0.789D+00-0.374D+00 0.447D+00-0.915D-01-0.100D+01 0.107D+00
 Coeff:      0.778D+00 0.738D+00
 Gap=     0.362 Goal=   None    Shift=    0.000
 Gap=     0.126 Goal=   None    Shift=    0.000
 RMSDP=1.13D-04 MaxDP=7.57D-03 DE= 1.64D-05 OVMax= 6.43D-02

 Cycle  27  Pass 1  IDiag  1:
 RMSU=  2.79D-06    CP:  1.00D+00  3.00D+00  3.00D+00  3.00D+00  1.76D+00
                    CP:  9.41D-01
 E= -1827.37528619511     Delta-E=       -0.000042294685 Rises=F Damp=F
 DIIS: error= 3.86D-05 at cycle  27 NSaved=  20.
 NSaved=20 IEnMin=20 EnMin= -1827.37528619511     IErMin=20 ErrMin= 3.86D-05
 ErrMax= 3.86D-05  0.00D+00 EMaxC= 1.00D-01 BMatC= 6.27D-06 BMatP= 4.87D-06
 IDIUse=1 WtCom= 1.00D+00 WtEn= 0.00D+00
 Coeff-Com:  0.641D-02-0.199D-01 0.154D-01-0.782D-02 0.352D-01-0.538D-01
 Coeff-Com: -0.129D-01 0.788D-01 0.190D+00-0.486D+00-0.125D-01 0.293D-01
 Coeff-Com: -0.281D+00 0.744D+00 0.706D+00-0.659D+00-0.541D+00-0.110D+00
 Coeff-Com:  0.505D+00 0.873D+00
 Coeff:      0.641D-02-0.199D-01 0.154D-01-0.782D-02 0.352D-01-0.538D-01
 Coeff:     -0.129D-01 0.788D-01 0.190D+00-0.486D+00-0.125D-01 0.293D-01
 Coeff:     -0.281D+00 0.744D+00 0.706D+00-0.659D+00-0.541D+00-0.110D+00
 Coeff:      0.505D+00 0.873D+00
 Gap=     0.362 Goal=   None    Shift=    0.000
 Gap=     0.126 Goal=   None    Shift=    0.000
 RMSDP=9.03D-06 MaxDP=6.06D-04 DE=-4.23D-05 OVMax= 4.00D-03

 Cycle  28  Pass 1  IDiag  1:
 RMSU=  1.68D-06    CP:  1.00D+00  3.00D+00  3.00D+00  3.00D+00  1.67D+00
                    CP:  1.22D+00  1.40D+00
 E= -1827.37528735268     Delta-E=       -0.000001157571 Rises=F Damp=F
 DIIS: error= 1.88D-05 at cycle  28 NSaved=  20.
 NSaved=20 IEnMin=20 EnMin= -1827.37528735268     IErMin=20 ErrMin= 1.88D-05
 ErrMax= 1.88D-05  0.00D+00 EMaxC= 1.00D-01 BMatC= 5.69D-07 BMatP= 4.87D-06
 IDIUse=1 WtCom= 1.00D+00 WtEn= 0.00D+00
 Coeff-Com: -0.267D-02-0.796D-02 0.102D-01 0.233D-01 0.229D-01-0.677D-01
 Coeff-Com: -0.282D+00 0.217D+00 0.465D+00-0.222D+00-0.360D+00-0.211D+00
 Coeff-Com:  0.186D+00 0.526D+00-0.141D-01-0.287D+00-0.513D+00-0.547D-01
 Coeff-Com:  0.503D+00 0.107D+01
 Coeff:     -0.267D-02-0.796D-02 0.102D-01 0.233D-01 0.229D-01-0.677D-01
 Coeff:     -0.282D+00 0.217D+00 0.465D+00-0.222D+00-0.360D+00-0.211D+00
 Coeff:      0.186D+00 0.526D+00-0.141D-01-0.287D+00-0.513D+00-0.547D-01
 Coeff:      0.503D+00 0.107D+01
 Gap=     0.361 Goal=   None    Shift=    0.000
 Gap=     0.125 Goal=   None    Shift=    0.000
 RMSDP=3.62D-05 MaxDP=2.46D-03 DE=-1.16D-06 OVMax= 2.07D-02

 Cycle  29  Pass 1  IDiag  1:
 RMSU=  2.46D-06    CP:  1.00D+00  3.00D+00  3.00D+00  3.00D+00  2.07D+00
                    CP:  1.66D+00  1.86D+00  1.43D+00
 E= -1827.37529418241     Delta-E=       -0.000006829730 Rises=F Damp=F
 DIIS: error= 1.05D-05 at cycle  29 NSaved=  20.
 NSaved=20 IEnMin=20 EnMin= -1827.37529418241     IErMin=20 ErrMin= 1.05D-05
 ErrMax= 1.05D-05  0.00D+00 EMaxC= 1.00D-01 BMatC= 3.01D-07 BMatP= 5.69D-07
 IDIUse=1 WtCom= 1.00D+00 WtEn= 0.00D+00
 Coeff-Com: -0.152D-02 0.664D-02-0.457D-02 0.632D-02-0.125D-02-0.125D+00
 Coeff-Com: -0.371D-01 0.195D+00 0.928D-01 0.988D-01 0.491D-01-0.617D+00
 Coeff-Com: -0.144D+00 0.344D+00 0.302D+00-0.223D+00-0.247D+00-0.160D+00
 Coeff-Com:  0.286D+00 0.118D+01
 Coeff:     -0.152D-02 0.664D-02-0.457D-02 0.632D-02-0.125D-02-0.125D+00
 Coeff:     -0.371D-01 0.195D+00 0.928D-01 0.988D-01 0.491D-01-0.617D+00
 Coeff:     -0.144D+00 0.344D+00 0.302D+00-0.223D+00-0.247D+00-0.160D+00
 Coeff:      0.286D+00 0.118D+01
 Gap=     0.360 Goal=   None    Shift=    0.000
 Gap=     0.125 Goal=   None    Shift=    0.000
 RMSDP=2.25D-05 MaxDP=1.52D-03 DE=-6.83D-06 OVMax= 1.28D-02

 Cycle  30  Pass 1  IDiag  1:
 RMSU=  5.00D-07    CP:  1.00D+00  3.00D+00  3.00D+00  3.00D+00  2.31D+00
                    CP:  2.00D+00  2.16D+00  1.95D+00  1.98D+00
 E= -1827.37529628941     Delta-E=       -0.000002107005 Rises=F Damp=F
 DIIS: error= 6.30D-06 at cycle  30 NSaved=  20.
 NSaved=20 IEnMin=20 EnMin= -1827.37529628941     IErMin=20 ErrMin= 6.30D-06
 ErrMax= 6.30D-06  0.00D+00 EMaxC= 1.00D-01 BMatC= 5.67D-08 BMatP= 3.01D-07
 IDIUse=1 WtCom= 1.00D+00 WtEn= 0.00D+00
 Coeff-Com: -0.104D-01 0.163D-01-0.105D-01 0.202D-01 0.293D-02-0.824D-01
 Coeff-Com: -0.491D-01 0.103D+00 0.137D+00-0.104D+00-0.140D+00-0.731D-01
 Coeff-Com:  0.154D+00 0.148D+00 0.423D-01-0.124D+00-0.183D+00-0.367D+00
 Coeff-Com:  0.396D+00 0.112D+01
 Coeff:     -0.104D-01 0.163D-01-0.105D-01 0.202D-01 0.293D-02-0.824D-01
 Coeff:     -0.491D-01 0.103D+00 0.137D+00-0.104D+00-0.140D+00-0.731D-01
 Coeff:      0.154D+00 0.148D+00 0.423D-01-0.124D+00-0.183D+00-0.367D+00
 Coeff:      0.396D+00 0.112D+01
 Gap=     0.360 Goal=   None    Shift=    0.000
 Gap=     0.125 Goal=   None    Shift=    0.000
 RMSDP=1.30D-05 MaxDP=8.64D-04 DE=-2.11D-06 OVMax= 7.39D-03

 Cycle  31  Pass 1  IDiag  1:
 RMSU=  5.34D-07    CP:  1.00D+00  3.00D+00  3.00D+00  3.00D+00  2.45D+00
                    CP:  2.13D+00  2.40D+00  2.56D+00  2.84D+00  1.72D+00
 E= -1827.37529667916     Delta-E=       -0.000000389745 Rises=F Damp=F
 DIIS: error= 4.34D-06 at cycle  31 NSaved=  20.
 NSaved=20 IEnMin=20 EnMin= -1827.37529667916     IErMin=20 ErrMin= 4.34D-06
 ErrMax= 4.34D-06  0.00D+00 EMaxC= 1.00D-01 BMatC= 4.89D-08 BMatP= 5.67D-08
 IDIUse=1 WtCom= 1.00D+00 WtEn= 0.00D+00
 Coeff-Com:  0.691D-02-0.177D-01 0.238D-01 0.967D-01-0.655D-01-0.246D+00
 Coeff-Com:  0.950D-01 0.150D+00 0.357D-01-0.198D-01 0.961D-02-0.834D-01
 Coeff-Com:  0.465D-01 0.118D+00 0.357D-01-0.742D-01-0.196D+00-0.227D+00
 Coeff-Com:  0.339D+00 0.973D+00
 Coeff:      0.691D-02-0.177D-01 0.238D-01 0.967D-01-0.655D-01-0.246D+00
 Coeff:      0.950D-01 0.150D+00 0.357D-01-0.198D-01 0.961D-02-0.834D-01
 Coeff:      0.465D-01 0.118D+00 0.357D-01-0.742D-01-0.196D+00-0.227D+00
 Coeff:      0.339D+00 0.973D+00
 Gap=     0.360 Goal=   None    Shift=    0.000
 Gap=     0.125 Goal=   None    Shift=    0.000
 RMSDP=1.36D-05 MaxDP=8.95D-04 DE=-3.90D-07 OVMax= 7.61D-03

 Cycle  32  Pass 1  IDiag  1:
 RMSU=  9.56D-07    CP:  1.00D+00  3.00D+00  3.00D+00  3.00D+00  2.30D+00
                    CP:  2.12D+00  2.50D+00  3.00D+00  2.48D+00  2.44D+00
                    CP:  1.69D+00
 E= -1827.37529624035     Delta-E=        0.000000438811 Rises=F Damp=F
 DIIS: error= 1.31D-05 at cycle  32 NSaved=  20.
 NSaved=20 IEnMin=19 EnMin= -1827.37529667916     IErMin=19 ErrMin= 4.34D-06
 ErrMax= 1.31D-05  0.00D+00 EMaxC= 1.00D-01 BMatC= 8.59D-07 BMatP= 4.89D-08
 IDIUse=1 WtCom= 1.00D+00 WtEn= 0.00D+00
 Coeff-Com: -0.110D-01 0.803D-02 0.627D-01 0.132D-01-0.928D-01-0.162D-01
 Coeff-Com: -0.454D-02 0.667D-01 0.975D-01 0.590D-01-0.215D+00-0.978D-01
 Coeff-Com:  0.153D+00 0.434D-01 0.117D+00-0.318D-01-0.390D+00-0.226D+00
 Coeff-Com:  0.670D+00 0.795D+00
 Coeff:     -0.110D-01 0.803D-02 0.627D-01 0.132D-01-0.928D-01-0.162D-01
 Coeff:     -0.454D-02 0.667D-01 0.975D-01 0.590D-01-0.215D+00-0.978D-01
 Coeff:      0.153D+00 0.434D-01 0.117D+00-0.318D-01-0.390D+00-0.226D+00
 Coeff:      0.670D+00 0.795D+00
 Gap=     0.360 Goal=   None    Shift=    0.000
 Gap=     0.125 Goal=   None    Shift=    0.000
 RMSDP=1.79D-05 MaxDP=1.19D-03 DE= 4.39D-07 OVMax= 1.02D-02

 Cycle  33  Pass 1  IDiag  1:
 RMSU=  8.22D-07    CP:  1.00D+00  3.00D+00  3.00D+00  3.00D+00  2.50D+00
                    CP:  2.20D+00  2.49D+00  3.00D+00  3.00D+00  2.98D+00
                    CP:  1.98D+00  4.99D-01
 E= -1827.37529670277     Delta-E=       -0.000000462421 Rises=F Damp=F
 DIIS: error= 2.91D-06 at cycle  33 NSaved=  20.
 NSaved=20 IEnMin=20 EnMin= -1827.37529670277     IErMin=20 ErrMin= 2.91D-06
 ErrMax= 2.91D-06  0.00D+00 EMaxC= 1.00D-01 BMatC= 4.63D-08 BMatP= 4.89D-08
 IDIUse=1 WtCom= 1.00D+00 WtEn= 0.00D+00
 Coeff-Com: -0.108D-01-0.172D-01 0.432D-01 0.799D-01-0.495D-01-0.964D-01
 Coeff-Com:  0.232D-01 0.180D-01 0.463D-01 0.580D-02-0.531D-01-0.334D-01
 Coeff-Com: -0.365D-02 0.617D-01 0.112D+00-0.577D-01-0.292D+00-0.993D-01
 Coeff-Com:  0.310D+00 0.101D+01
 Coeff:     -0.108D-01-0.172D-01 0.432D-01 0.799D-01-0.495D-01-0.964D-01
 Coeff:      0.232D-01 0.180D-01 0.463D-01 0.580D-02-0.531D-01-0.334D-01
 Coeff:     -0.365D-02 0.617D-01 0.112D+00-0.577D-01-0.292D+00-0.993D-01
 Coeff:      0.310D+00 0.101D+01
 Gap=     0.360 Goal=   None    Shift=    0.000
 Gap=     0.125 Goal=   None    Shift=    0.000
 RMSDP=4.97D-06 MaxDP=3.25D-04 DE=-4.62D-07 OVMax= 2.78D-03

 Cycle  34  Pass 1  IDiag  1:
 RMSU=  4.11D-07    CP:  1.00D+00  3.00D+00  3.00D+00  3.00D+00  2.44D+00
                    CP:  2.19D+00  2.55D+00  3.00D+00  3.00D+00  3.00D+00
                    CP:  2.36D+00  1.02D+00  6.74D-01
 E= -1827.37529676695     Delta-E=       -0.000000064181 Rises=F Damp=F
 DIIS: error= 2.93D-06 at cycle  34 NSaved=  20.
 NSaved=20 IEnMin=20 EnMin= -1827.37529676695     IErMin=19 ErrMin= 2.91D-06
 ErrMax= 2.93D-06  0.00D+00 EMaxC= 1.00D-01 BMatC= 4.02D-08 BMatP= 4.63D-08
 IDIUse=1 WtCom= 1.00D+00 WtEn= 0.00D+00
 Coeff-Com: -0.224D-01-0.453D-03 0.549D-01-0.387D-02-0.204D-01-0.989D-02
 Coeff-Com: -0.238D-01-0.117D-01 0.580D-01 0.720D-02-0.427D-01-0.389D-01
 Coeff-Com:  0.204D-01 0.584D-01 0.803D-01-0.126D+00-0.111D+00-0.856D-01
 Coeff-Com:  0.274D+00 0.943D+00
 Coeff:     -0.224D-01-0.453D-03 0.549D-01-0.387D-02-0.204D-01-0.989D-02
 Coeff:     -0.238D-01-0.117D-01 0.580D-01 0.720D-02-0.427D-01-0.389D-01
 Coeff:      0.204D-01 0.584D-01 0.803D-01-0.126D+00-0.111D+00-0.856D-01
 Coeff:      0.274D+00 0.943D+00
 Gap=     0.360 Goal=   None    Shift=    0.000
 Gap=     0.125 Goal=   None    Shift=    0.000
 RMSDP=4.30D-07 MaxDP=3.40D-05 DE=-6.42D-08 OVMax= 2.20D-04

 Cycle  35  Pass 1  IDiag  1:
 RMSU=  6.37D-08    CP:  1.00D+00  3.00D+00  3.00D+00  3.00D+00  2.44D+00
                    CP:  2.18D+00  2.57D+00  3.00D+00  3.00D+00  3.00D+00
                    CP:  2.50D+00  1.12D+00  7.40D-01  1.28D+00
 E= -1827.37529677023     Delta-E=       -0.000000003280 Rises=F Damp=F
 DIIS: error= 2.67D-06 at cycle  35 NSaved=  20.
 NSaved=20 IEnMin=20 EnMin= -1827.37529677023     IErMin=20 ErrMin= 2.67D-06
 ErrMax= 2.67D-06  0.00D+00 EMaxC= 1.00D-01 BMatC= 3.73D-08 BMatP= 4.02D-08
 IDIUse=1 WtCom= 1.00D+00 WtEn= 0.00D+00
 Coeff-Com: -0.617D-02 0.886D-03 0.791D-02 0.246D-01-0.230D-01-0.452D-02
 Coeff-Com: -0.127D-01 0.178D-01 0.126D-01 0.272D-03-0.343D-01 0.816D-02
 Coeff-Com: -0.190D-01 0.592D-01 0.113D-01 0.204D-01-0.151D+00-0.149D+00
 Coeff-Com:  0.189D+00 0.105D+01
 Coeff:     -0.617D-02 0.886D-03 0.791D-02 0.246D-01-0.230D-01-0.452D-02
 Coeff:     -0.127D-01 0.178D-01 0.126D-01 0.272D-03-0.343D-01 0.816D-02
 Coeff:     -0.190D-01 0.592D-01 0.113D-01 0.204D-01-0.151D+00-0.149D+00
 Coeff:      0.189D+00 0.105D+01
 Gap=     0.360 Goal=   None    Shift=    0.000
 Gap=     0.125 Goal=   None    Shift=    0.000
 RMSDP=9.03D-07 MaxDP=5.94D-05 DE=-3.28D-09 OVMax= 4.97D-04

 Cycle  36  Pass 1  IDiag  1:
 RMSU=  7.71D-08    CP:  1.00D+00  3.00D+00  3.00D+00  3.00D+00  2.43D+00
                    CP:  2.19D+00  2.58D+00  3.00D+00  3.00D+00  3.00D+00
                    CP:  2.53D+00  1.24D+00  7.09D-01  1.48D+00  1.40D+00
 E= -1827.37529675851     Delta-E=        0.000000011713 Rises=F Damp=F
 DIIS: error= 4.00D-06 at cycle  36 NSaved=  20.
 NSaved=20 IEnMin=19 EnMin= -1827.37529677023     IErMin=19 ErrMin= 2.67D-06
 ErrMax= 4.00D-06  0.00D+00 EMaxC= 1.00D-01 BMatC= 7.75D-08 BMatP= 3.73D-08
 IDIUse=1 WtCom= 1.00D+00 WtEn= 0.00D+00
 Coeff-Com: -0.573D-02 0.652D-02 0.191D-01-0.145D-01-0.154D-02 0.596D-03
 Coeff-Com: -0.148D-02 0.306D-02 0.123D-01-0.302D-01 0.195D-01-0.174D-01
 Coeff-Com:  0.152D-01-0.632D-03 0.781D-01-0.103D+00-0.629D-01-0.253D+00
 Coeff-Com:  0.610D+00 0.726D+00
 Coeff:     -0.573D-02 0.652D-02 0.191D-01-0.145D-01-0.154D-02 0.596D-03
 Coeff:     -0.148D-02 0.306D-02 0.123D-01-0.302D-01 0.195D-01-0.174D-01
 Coeff:      0.152D-01-0.632D-03 0.781D-01-0.103D+00-0.629D-01-0.253D+00
 Coeff:      0.610D+00 0.726D+00
 Gap=     0.360 Goal=   None    Shift=    0.000
 Gap=     0.125 Goal=   None    Shift=    0.000
 RMSDP=6.47D-07 MaxDP=4.14D-05 DE= 1.17D-08 OVMax= 3.61D-04

 Cycle  37  Pass 1  IDiag  1:
 RMSU=  2.00D-08    CP:  1.00D+00  3.00D+00  3.00D+00  3.00D+00  2.44D+00
                    CP:  2.19D+00  2.58D+00  3.00D+00  3.00D+00  3.00D+00
                    CP:  2.53D+00  1.23D+00  8.14D-01  1.49D+00  1.89D+00
                    CP:  1.29D+00
 E= -1827.37529676857     Delta-E=       -0.000000010057 Rises=F Damp=F
 DIIS: error= 3.18D-06 at cycle  37 NSaved=  20.
 NSaved=20 IEnMin=18 EnMin= -1827.37529677023     IErMin=18 ErrMin= 2.67D-06
 ErrMax= 3.18D-06  0.00D+00 EMaxC= 1.00D-01 BMatC= 4.79D-08 BMatP= 3.73D-08
 IDIUse=1 WtCom= 1.00D+00 WtEn= 0.00D+00
 Coeff-Com:  0.338D-02 0.334D-02-0.163D-02-0.403D-02 0.124D-01-0.526D-02
 Coeff-Com: -0.508D-02 0.774D-02-0.240D-01 0.235D-01 0.375D-02-0.922D-02
 Coeff-Com: -0.399D-01 0.709D-01-0.372D-01 0.898D-01-0.393D+00 0.155D+00
 Coeff-Com:  0.178D+00 0.971D+00
 Coeff:      0.338D-02 0.334D-02-0.163D-02-0.403D-02 0.124D-01-0.526D-02
 Coeff:     -0.508D-02 0.774D-02-0.240D-01 0.235D-01 0.375D-02-0.922D-02
 Coeff:     -0.399D-01 0.709D-01-0.372D-01 0.898D-01-0.393D+00 0.155D+00
 Coeff:      0.178D+00 0.971D+00
 Gap=     0.360 Goal=   None    Shift=    0.000
 Gap=     0.125 Goal=   None    Shift=    0.000
 RMSDP=1.06D-07 MaxDP=5.85D-06 DE=-1.01D-08 OVMax= 4.15D-05

 Cycle  38  Pass 1  IDiag  1:
 RMSU=  1.56D-08    CP:  1.00D+00  3.00D+00  3.00D+00  3.00D+00  2.44D+00
                    CP:  2.19D+00  2.58D+00  3.00D+00  3.00D+00  3.00D+00
                    CP:  2.55D+00  1.25D+00  8.58D-01  1.55D+00  2.27D+00
                    CP:  1.73D+00  1.72D+00
 E= -1827.37529677246     Delta-E=       -0.000000003891 Rises=F Damp=F
 DIIS: error= 2.70D-06 at cycle  38 NSaved=  20.
 NSaved=20 IEnMin=20 EnMin= -1827.37529677246     IErMin=17 ErrMin= 2.67D-06
 ErrMax= 2.70D-06  0.00D+00 EMaxC= 1.00D-01 BMatC= 3.56D-08 BMatP= 3.73D-08
 IDIUse=1 WtCom= 1.00D+00 WtEn= 0.00D+00
 Coeff-Com:  0.266D-02 0.500D-02-0.745D-02 0.694D-02-0.645D-03-0.148D-02
 Coeff-Com:  0.626D-03-0.164D-01 0.148D-01 0.150D-01-0.196D-02-0.458D-01
 Coeff-Com:  0.321D-01-0.104D-01 0.111D+00-0.160D+00-0.593D-01-0.564D+00
 Coeff-Com:  0.284D+00 0.139D+01
 Coeff:      0.266D-02 0.500D-02-0.745D-02 0.694D-02-0.645D-03-0.148D-02
 Coeff:      0.626D-03-0.164D-01 0.148D-01 0.150D-01-0.196D-02-0.458D-01
 Coeff:      0.321D-01-0.104D-01 0.111D+00-0.160D+00-0.593D-01-0.564D+00
 Coeff:      0.284D+00 0.139D+01
 Gap=     0.360 Goal=   None    Shift=    0.000
 Gap=     0.125 Goal=   None    Shift=    0.000
 RMSDP=2.73D-07 MaxDP=1.92D-05 DE=-3.89D-09 OVMax= 1.53D-04

 Cycle  39  Pass 1  IDiag  1:
 RMSU=  2.17D-08    CP:  1.00D+00  3.00D+00  3.00D+00  3.00D+00  2.43D+00
                    CP:  2.18D+00  2.58D+00  3.00D+00  3.00D+00  3.00D+00
                    CP:  2.56D+00  1.27D+00  8.71D-01  1.60D+00  2.64D+00
                    CP:  2.71D+00  2.44D+00  2.59D+00
 E= -1827.37529677714     Delta-E=       -0.000000004680 Rises=F Damp=F
 DIIS: error= 2.04D-06 at cycle  39 NSaved=  20.
 NSaved=20 IEnMin=20 EnMin= -1827.37529677714     IErMin=20 ErrMin= 2.04D-06
 ErrMax= 2.04D-06  0.00D+00 EMaxC= 1.00D-01 BMatC= 2.02D-08 BMatP= 3.56D-08
 IDIUse=1 WtCom= 1.00D+00 WtEn= 0.00D+00
 Coeff-Com: -0.315D-02 0.542D-02 0.440D-03 0.602D-03-0.219D-02-0.715D-03
 Coeff-Com: -0.670D-02 0.443D-02 0.430D-02 0.111D-01-0.953D-02-0.148D-01
 Coeff-Com: -0.152D-01 0.478D-01 0.126D+00-0.600D-02-0.501D+00-0.567D+00
 Coeff-Com:  0.537D+00 0.139D+01
 Coeff:     -0.315D-02 0.542D-02 0.440D-03 0.602D-03-0.219D-02-0.715D-03
 Coeff:     -0.670D-02 0.443D-02 0.430D-02 0.111D-01-0.953D-02-0.148D-01
 Coeff:     -0.152D-01 0.478D-01 0.126D+00-0.600D-02-0.501D+00-0.567D+00
 Coeff:      0.537D+00 0.139D+01
 Gap=     0.360 Goal=   None    Shift=    0.000
 Gap=     0.125 Goal=   None    Shift=    0.000
 RMSDP=6.14D-07 MaxDP=3.49D-05 DE=-4.68D-09 OVMax= 3.17D-04

 Cycle  40  Pass 1  IDiag  1:
 RMSU=  6.08D-08    CP:  1.00D+00  3.00D+00  3.00D+00  3.00D+00  2.44D+00
                    CP:  2.18D+00  2.58D+00  3.00D+00  3.00D+00  3.00D+00
                    CP:  2.57D+00  1.24D+00  9.80D-01  1.58D+00  3.00D+00
                    CP:  3.00D+00  3.00D+00  3.00D+00  1.88D+00
 E= -1827.37529678316     Delta-E=       -0.000000006019 Rises=F Damp=F
 DIIS: error= 3.46D-07 at cycle  40 NSaved=  20.
 NSaved=20 IEnMin=20 EnMin= -1827.37529678316     IErMin=20 ErrMin= 3.46D-07
 ErrMax= 3.46D-07  0.00D+00 EMaxC= 1.00D-01 BMatC= 3.72D-10 BMatP= 2.02D-08
 IDIUse=1 WtCom= 1.00D+00 WtEn= 0.00D+00
 Coeff-Com:  0.306D-02-0.251D-02-0.155D-03 0.258D-03 0.332D-02 0.137D-02
 Coeff-Com: -0.460D-02-0.108D-01 0.253D-02 0.272D-01-0.182D-01-0.624D-02
 Coeff-Com: -0.298D-01 0.247D-01 0.783D-02 0.185D+00 0.160D+00-0.431D+00
 Coeff-Com: -0.340D+00 0.143D+01
 Coeff:      0.306D-02-0.251D-02-0.155D-03 0.258D-03 0.332D-02 0.137D-02
 Coeff:     -0.460D-02-0.108D-01 0.253D-02 0.272D-01-0.182D-01-0.624D-02
 Coeff:     -0.298D-01 0.247D-01 0.783D-02 0.185D+00 0.160D+00-0.431D+00
 Coeff:     -0.340D+00 0.143D+01
 Gap=     0.360 Goal=   None    Shift=    0.000
 Gap=     0.125 Goal=   None    Shift=    0.000
 RMSDP=3.95D-07 MaxDP=2.71D-05 DE=-6.02D-09 OVMax= 2.28D-04

 Cycle  41  Pass 1  IDiag  1:
 Restarting incremental Fock formation.
 E= -1827.37529678305     Delta-E=        0.000000000116 Rises=F Damp=F
 DIIS: error= 4.34D-07 at cycle  41 NSaved=  20.
 NSaved=20 IEnMin=19 EnMin= -1827.37529678316     IErMin=19 ErrMin= 3.46D-07
 ErrMax= 4.34D-07  0.00D+00 EMaxC= 1.00D-01 BMatC= 8.62D-10 BMatP= 3.72D-10
 IDIUse=1 WtCom= 1.00D+00 WtEn= 0.00D+00
 Coeff-Com: -0.309D-03 0.125D-02-0.211D-03 0.147D-02 0.263D-03-0.247D-02
 Coeff-Com: -0.636D-02-0.763D-03 0.177D-01-0.106D-01-0.169D-02-0.959D-02
 Coeff-Com: -0.288D-01-0.358D-01 0.206D+00 0.302D+00-0.390D+00-0.589D+00
 Coeff-Com:  0.567D+00 0.979D+00
 Coeff:     -0.309D-03 0.125D-02-0.211D-03 0.147D-02 0.263D-03-0.247D-02
 Coeff:     -0.636D-02-0.763D-03 0.177D-01-0.106D-01-0.169D-02-0.959D-02
 Coeff:     -0.288D-01-0.358D-01 0.206D+00 0.302D+00-0.390D+00-0.589D+00
 Coeff:      0.567D+00 0.979D+00
 Gap=     0.360 Goal=   None    Shift=    0.000
 Gap=     0.125 Goal=   None    Shift=    0.000
 RMSDP=4.53D-08 MaxDP=4.08D-06 DE= 1.16D-10 OVMax= 1.01D-05

 Cycle  42  Pass 1  IDiag  1:
 RMSU=  4.53D-08    CP:  1.00D+00
 E= -1827.37529678336     Delta-E=       -0.000000000313 Rises=F Damp=F
 DIIS: error= 2.01D-07 at cycle  42 NSaved=  20.
 NSaved=20 IEnMin=20 EnMin= -1827.37529678336     IErMin=20 ErrMin= 2.01D-07
 ErrMax= 2.01D-07  0.00D+00 EMaxC= 1.00D-01 BMatC= 1.64D-10 BMatP= 3.72D-10
 IDIUse=1 WtCom= 1.00D+00 WtEn= 0.00D+00
 Coeff-Com:  0.786D-03-0.116D-02-0.598D-03-0.179D-02 0.184D-02 0.285D-02
 Coeff-Com: -0.137D-02-0.682D-02-0.150D-02 0.318D-02 0.296D-01 0.122D-01
 Coeff-Com: -0.527D-01-0.131D+00 0.202D-01 0.172D+00 0.607D-01-0.654D+00
 Coeff-Com:  0.250D+00 0.130D+01
 Coeff:      0.786D-03-0.116D-02-0.598D-03-0.179D-02 0.184D-02 0.285D-02
 Coeff:     -0.137D-02-0.682D-02-0.150D-02 0.318D-02 0.296D-01 0.122D-01
 Coeff:     -0.527D-01-0.131D+00 0.202D-01 0.172D+00 0.607D-01-0.654D+00
 Coeff:      0.250D+00 0.130D+01
 Gap=     0.360 Goal=   None    Shift=    0.000
 Gap=     0.125 Goal=   None    Shift=    0.000
 RMSDP=2.26D-07 MaxDP=1.37D-05 DE=-3.13D-10 OVMax= 1.23D-04

 Cycle  43  Pass 1  IDiag  1:
 RMSU=  1.97D-07    CP:  1.00D+00  3.00D+00
 E= -1827.37529678346     Delta-E=       -0.000000000101 Rises=F Damp=F
 DIIS: error= 1.05D-07 at cycle  43 NSaved=  20.
 NSaved=20 IEnMin=20 EnMin= -1827.37529678346     IErMin=20 ErrMin= 1.05D-07
 ErrMax= 1.05D-07  0.00D+00 EMaxC= 1.00D-01 BMatC= 4.84D-11 BMatP= 1.64D-10
 IDIUse=1 WtCom= 1.00D+00 WtEn= 0.00D+00
 Coeff-Com:  0.439D-03-0.139D-02-0.222D-02 0.169D-02 0.609D-02 0.234D-02
 Coeff-Com: -0.126D-01 0.219D-02 0.147D-02 0.209D-01 0.251D-01-0.210D-01
 Coeff-Com: -0.244D+00-0.165D+00 0.422D+00 0.478D+00-0.901D+00-0.465D+00
 Coeff-Com:  0.564D+00 0.129D+01
 Coeff:      0.439D-03-0.139D-02-0.222D-02 0.169D-02 0.609D-02 0.234D-02
 Coeff:     -0.126D-01 0.219D-02 0.147D-02 0.209D-01 0.251D-01-0.210D-01
 Coeff:     -0.244D+00-0.165D+00 0.422D+00 0.478D+00-0.901D+00-0.465D+00
 Coeff:      0.564D+00 0.129D+01
 Gap=     0.360 Goal=   None    Shift=    0.000
 Gap=     0.125 Goal=   None    Shift=    0.000
 RMSDP=1.12D-07 MaxDP=8.45D-06 DE=-1.01D-10 OVMax= 5.97D-05

 Cycle  44  Pass 1  IDiag  1:
 RMSU=  5.03D-08    CP:  1.00D+00  3.00D+00  4.90D-01
 E= -1827.37529678353     Delta-E=       -0.000000000067 Rises=F Damp=F
 DIIS: error= 3.40D-08 at cycle  44 NSaved=  20.
 NSaved=20 IEnMin=20 EnMin= -1827.37529678353     IErMin=20 ErrMin= 3.40D-08
 ErrMax= 3.40D-08  0.00D+00 EMaxC= 1.00D-01 BMatC= 4.93D-12 BMatP= 4.84D-11
 IDIUse=1 WtCom= 1.00D+00 WtEn= 0.00D+00
 Coeff-Com: -0.182D-03-0.840D-03-0.363D-03 0.128D-02 0.406D-02-0.116D-02
 Coeff-Com: -0.569D-02-0.836D-03-0.201D-02 0.330D-01 0.157D-01-0.766D-01
 Coeff-Com: -0.147D+00 0.103D+00 0.317D+00-0.215D+00-0.271D+00-0.158D+00
 Coeff-Com:  0.341D+00 0.107D+01
 Coeff:     -0.182D-03-0.840D-03-0.363D-03 0.128D-02 0.406D-02-0.116D-02
[...]
    16  C(13)             -0.00078      -0.88199      -0.31472      -0.29420
    17  F(19)              0.00022       0.91799       0.32756       0.30621
    18  O(17)              0.00073      -0.44553      -0.15897      -0.14861
    19  C(13)             -0.00005      -0.05421      -0.01934      -0.01808
    20  F(19)             -0.00013      -0.53107      -0.18950      -0.17715
    21  F(19)             -0.00001      -0.05557      -0.01983      -0.01854
    22  F(19)             -0.00001      -0.04442      -0.01585      -0.01482
    23  C(13)             -0.00027      -0.30400      -0.10848      -0.10140
    24  F(19)             -0.00005      -0.19896      -0.07100      -0.06637
    25  F(19)              0.00000       0.01871       0.00668       0.00624
    26  F(19)              0.00000      -0.01807      -0.00645      -0.00603
    27  C(13)             -0.02533     -28.47303     -10.15989      -9.49758
    28  O(17)              0.02769     -16.78819      -5.99044      -5.59994
    29  H(1)               0.00185       8.24708       2.94276       2.75093
    30  H(1)               0.00649      29.02969      10.35852       9.68326
    31  H(1)              -0.00018      -0.78949      -0.28171      -0.26335
    32  H(1)               0.00178       7.94858       2.83625       2.65136
    33  H(1)              -0.00019      -0.83937      -0.29951      -0.27998
    34  H(1)               0.00357      15.95069       5.69160       5.32058
    35  H(1)               0.01603      71.66517      25.57191      23.90493
    36  H(1)               0.00484      21.62618       7.71676       7.21372
    37  H(1)               0.00170       7.58997       2.70829       2.53174
    38  H(1)               0.00104       4.64714       1.65822       1.55012
    39  H(1)              -0.00046      -2.03912      -0.72761      -0.68018
    40  H(1)               0.00005       0.24458       0.08727       0.08158
 --------------------------------------------------------
       Center         ----  Spin Dipole Couplings  ----
                      3XX-RR        3YY-RR        3ZZ-RR
 --------------------------------------------------------
     1   Atom        0.003484     -0.007344      0.003860
     2   Atom        0.083260     -0.041459     -0.041802
     3   Atom        0.005247     -0.035236      0.029989
     4   Atom        0.189763     -0.520917      0.331154
     5   Atom       -0.004941      0.038156     -0.033215
     6   Atom        0.003179      0.203670     -0.206850
     7   Atom        0.096211     -0.231076      0.134864
     8   Atom       -0.012117     -0.009451      0.021568
     9   Atom       -0.005326     -0.008286      0.013613
    10   Atom        0.002829      0.020231     -0.023060
    11   Atom       -0.060120     -0.176635      0.236754
    12   Atom       -0.014349      0.026321     -0.011972
    13   Atom       -0.000888      0.000465      0.000422
    14   Atom       -0.003905      0.006886     -0.002981
    15   Atom        0.000383     -0.010564      0.010181
    16   Atom        0.000542      0.000088     -0.000630
    17   Atom        0.002712     -0.000080     -0.002632
    18   Atom        0.012320     -0.006018     -0.006302
    19   Atom        0.002659     -0.000941     -0.001718
    20   Atom        0.001701     -0.000434     -0.001267
    21   Atom        0.000894     -0.000054     -0.000840
    22   Atom        0.002165     -0.000637     -0.001528
    23   Atom        0.000801     -0.000349     -0.000452
    24   Atom        0.000383     -0.000192     -0.000191
    25   Atom        0.000598     -0.000440     -0.000157
    26   Atom        0.000429     -0.000365     -0.000064
    27   Atom       -0.008464      0.053479     -0.045015
    28   Atom       -0.154036     -0.267610      0.421646
    29   Atom       -0.000833      0.004776     -0.003943
    30   Atom        0.003418     -0.001011     -0.002408
    31   Atom       -0.000628     -0.000828      0.001456
    32   Atom        0.001297     -0.003721      0.002423
    33   Atom        0.006477      0.001393     -0.007870
    34   Atom       -0.004217      0.007447     -0.003230
    35   Atom       -0.003130     -0.003681      0.006811
    36   Atom       -0.001526      0.002205     -0.000679
    37   Atom       -0.000373      0.003232     -0.002859
    38   Atom       -0.002533      0.004400     -0.001867
    39   Atom        0.003135     -0.000620     -0.002516
    40   Atom       -0.001927     -0.000879      0.002806
 --------------------------------------------------------
                        XY            XZ            YZ
 --------------------------------------------------------
     1   Atom        0.006622      0.015416      0.006911
     2   Atom        0.058673      0.057756      0.022159
     3   Atom        0.037709      0.062810      0.030907
     4   Atom        0.165642      0.814149      0.177066
     5   Atom       -0.011349     -0.030970     -0.017965
     6   Atom        0.150063     -0.057987      0.068415
     7   Atom        0.039483      0.359481      0.038348
     8   Atom       -0.000696      0.016906     -0.000221
     9   Atom       -0.014574      0.024334     -0.021929
    10   Atom        0.004122     -0.048557     -0.003295
    11   Atom        0.043512      0.225028      0.067061
    12   Atom       -0.010334     -0.047365     -0.010448
    13   Atom        0.001173     -0.001984     -0.001619
    14   Atom       -0.003228     -0.000710      0.003807
    15   Atom        0.000957     -0.013052     -0.002288
    16   Atom        0.000211     -0.002043     -0.000470
    17   Atom       -0.002607      0.000859     -0.001406
    18   Atom        0.001534     -0.003099     -0.000259
    19   Atom       -0.001524     -0.000376      0.000166
    20   Atom       -0.002248     -0.001536      0.001011
    21   Atom       -0.000925     -0.000362      0.000371
    22   Atom       -0.002152      0.000762     -0.000476
    23   Atom       -0.000128     -0.000682     -0.000084
    24   Atom       -0.000009     -0.000253     -0.000049
    25   Atom       -0.000398     -0.000841      0.000243
    26   Atom       -0.000160     -0.000820      0.000031
    27   Atom       -0.057563     -0.086838     -0.036936
    28   Atom        0.245446      0.534689      0.420391
    29   Atom        0.000815      0.000078      0.002034
    30   Atom        0.003751      0.001536      0.001690
    31   Atom        0.003256      0.002626      0.003679
    32   Atom        0.006255     -0.004929     -0.005369
    33   Atom       -0.002612      0.003543     -0.003165
    34   Atom       -0.004238     -0.002110     -0.004716
    35   Atom       -0.005314     -0.011932      0.005897
    36   Atom       -0.002183     -0.004398      0.003311
    37   Atom        0.002899     -0.002315     -0.000714
    38   Atom       -0.001446      0.000838     -0.000309
    39   Atom       -0.000703      0.002233     -0.002006
    40   Atom       -0.002001     -0.000276     -0.001768
 --------------------------------------------------------


 ---------------------------------------------------------------------------------
              Anisotropic Spin Dipole Couplings in Principal Axis System
 ---------------------------------------------------------------------------------

       Atom             a.u.   MegaHertz   Gauss  10(-4) cm-1        Axes

              Baa    -0.0118    -1.578    -0.563    -0.526 -0.6855 -0.1005  0.7211
     1 C(13)  Bbb    -0.0104    -1.400    -0.499    -0.467 -0.2904  0.9460 -0.1442
              Bcc     0.0222     2.978     1.063     0.993  0.6676  0.3083  0.6777
 
              Baa    -0.0652    -8.744    -3.120    -2.917 -0.4820  0.6981  0.5295
     2 C(13)  Bbb    -0.0638    -8.558    -3.054    -2.854 -0.0549 -0.6272  0.7769
              Bcc     0.1289    17.302     6.174     5.771  0.8745  0.3454  0.3406
 
              Baa    -0.0588    -7.890    -2.815    -2.632 -0.6192  0.7663  0.1713
     3 C(13)  Bbb    -0.0400    -5.365    -1.914    -1.790 -0.4885 -0.5467  0.6800
              Bcc     0.0988    13.255     4.730     4.421  0.6148  0.3374  0.7129
 
              Baa    -0.5592   -21.568    -7.696    -7.194 -0.5852  0.7086  0.3942
     4 N(14)  Bbb    -0.5544   -21.383    -7.630    -7.133  0.4587  0.6901 -0.5597
              Bcc     1.1136    42.950    15.326    14.327  0.6687  0.1467  0.7289
 
              Baa    -0.0578    -7.760    -2.769    -2.588  0.5275  0.2162  0.8216
     5 C(13)  Bbb     0.0150     2.008     0.717     0.670  0.8421 -0.0056 -0.5392
              Bcc     0.0429     5.752     2.052     1.919 -0.1120  0.9763 -0.1850
 
              Baa    -0.2493    18.037     6.436     6.016  0.3575 -0.2542  0.8987
     6 O(17)  Bbb    -0.0369     2.671     0.953     0.891  0.8149 -0.3851 -0.4331
              Bcc     0.2862   -20.708    -7.389    -6.908  0.4562  0.8872  0.0695
 
              Baa    -0.2450    -9.449    -3.372    -3.152  0.7185 -0.2282 -0.6570
     7 N(14)  Bbb    -0.2348    -9.056    -3.231    -3.021  0.1145  0.9705 -0.2120
              Bcc     0.4798    18.505     6.603     6.172  0.6860  0.0771  0.7235
 
              Baa    -0.0192    -2.572    -0.918    -0.858  0.9222  0.0574 -0.3824
     8 C(13)  Bbb    -0.0094    -1.265    -0.451    -0.422 -0.0482  0.9983  0.0334
              Bcc     0.0286     3.837     1.369     1.280  0.3837 -0.0124  0.9234
 
              Baa    -0.0222    -2.973    -1.061    -0.992 -0.5751  0.4626  0.6748
     9 C(13)  Bbb    -0.0215    -2.879    -1.027    -0.960  0.6464  0.7625  0.0282
              Bcc     0.0436     5.852     2.088     1.952  0.5014 -0.4524  0.7375
 
              Baa    -0.0604    -8.101    -2.891    -2.702  0.6092  0.0013  0.7930
    10 C(13)  Bbb     0.0189     2.539     0.906     0.847 -0.1921  0.9704  0.1460
              Bcc     0.0414     5.562     1.985     1.855  0.7694  0.2413 -0.5915
 
              Baa    -0.1921    13.900     4.960     4.637 -0.5089  0.8503  0.1341
    11 O(17)  Bbb    -0.1774    12.838     4.581     4.282  0.7208  0.5061 -0.4736
              Bcc     0.3695   -26.738    -9.541    -8.919  0.4705  0.1444  0.8705
 
              Baa    -0.0630    -2.428    -0.866    -0.810  0.7061  0.1624  0.6892
    12 N(14)  Bbb     0.0287     1.108     0.395     0.370 -0.1493  0.9856 -0.0792
              Bcc     0.0342     1.320     0.471     0.440 -0.6922 -0.0470  0.7202
 
              Baa    -0.0023    -0.312    -0.111    -0.104  0.8106 -0.0009  0.5856
    13 C(13)  Bbb    -0.0010    -0.128    -0.046    -0.043 -0.3387  0.8151  0.4701
              Bcc     0.0033     0.440     0.157     0.147 -0.4777 -0.5794  0.6604
 
              Baa    -0.0049    -2.479    -0.885    -0.827  0.8512  0.3565 -0.3852
    14 F(19)  Bbb    -0.0041    -2.051    -0.732    -0.684  0.4633 -0.1658  0.8705
              Bcc     0.0090     4.529     1.616     1.511 -0.2465  0.9195  0.3063
 
              Baa    -0.0109    -5.464    -1.950    -1.823  0.1412  0.9710  0.1930
    15 F(19)  Bbb    -0.0085    -4.289    -1.530    -1.431  0.8120 -0.2251  0.5386
              Bcc     0.0194     9.753     3.480     3.253 -0.5664 -0.0807  0.8202
 
              Baa    -0.0022    -0.295    -0.105    -0.098  0.5888  0.1102  0.8008
    16 C(13)  Bbb     0.0000     0.002     0.001     0.001 -0.2359  0.9710  0.0398
              Bcc     0.0022     0.293     0.104     0.098  0.7731  0.2123 -0.5977
 
              Baa    -0.0033    -1.643    -0.586    -0.548  0.0669  0.4473  0.8919
    17 F(19)  Bbb    -0.0013    -0.653    -0.233    -0.218  0.5575  0.7245 -0.4052
              Bcc     0.0046     2.296     0.819     0.766  0.8274 -0.5244  0.2009
 
              Baa    -0.0068     0.492     0.176     0.164  0.1587  0.0162  0.9872
    18 O(17)  Bbb    -0.0061     0.445     0.159     0.148 -0.0833  0.9965 -0.0029
              Bcc     0.0129    -0.937    -0.334    -0.313  0.9838  0.0817 -0.1595
 
              Baa    -0.0018    -0.235    -0.084    -0.079  0.0420 -0.1233  0.9915
    19 C(13)  Bbb    -0.0015    -0.201    -0.072    -0.067  0.3506  0.9311  0.1009
              Bcc     0.0033     0.436     0.156     0.146  0.9356 -0.3434 -0.0823
 
              Baa    -0.0019    -0.977    -0.349    -0.326  0.0967 -0.4498  0.8879
    20 F(19)  Bbb    -0.0018    -0.926    -0.331    -0.309  0.6011  0.7374  0.3081
              Bcc     0.0038     1.904     0.679     0.635  0.7933 -0.5039 -0.3417
 
              Baa    -0.0010    -0.496    -0.177    -0.165 -0.0058 -0.3748  0.9271
    21 F(19)  Bbb    -0.0006    -0.290    -0.103    -0.097  0.5595  0.7672  0.3137
              Bcc     0.0016     0.786     0.280     0.262  0.8288 -0.5206 -0.2052
 
              Baa    -0.0018    -0.917    -0.327    -0.306  0.3870  0.8469  0.3647
    22 F(19)  Bbb    -0.0017    -0.837    -0.299    -0.279 -0.3206 -0.2472  0.9144
              Bcc     0.0035     1.754     0.626     0.585  0.8645 -0.4708  0.1758
 
              Baa    -0.0008    -0.106    -0.038    -0.035  0.3974  0.2820  0.8732
    23 C(13)  Bbb    -0.0003    -0.042    -0.015    -0.014 -0.0619  0.9577 -0.2811
              Bcc     0.0011     0.148     0.053     0.049  0.9155 -0.0577 -0.3981
 
              Baa    -0.0003    -0.154    -0.055    -0.052  0.3215  0.3915  0.8622
    24 F(19)  Bbb    -0.0002    -0.086    -0.031    -0.029 -0.1507  0.9201 -0.3616
              Bcc     0.0005     0.241     0.086     0.080  0.9348  0.0137 -0.3548
 
              Baa    -0.0007    -0.353    -0.126    -0.118  0.5594  0.0854  0.8245
    25 F(19)  Bbb    -0.0006    -0.284    -0.101    -0.095  0.1720  0.9611 -0.2163
              Bcc     0.0013     0.637     0.227     0.213  0.8108 -0.2628 -0.5230
 
              Baa    -0.0007    -0.346    -0.124    -0.116  0.5973  0.2188  0.7716
    26 F(19)  Bbb    -0.0004    -0.183    -0.065    -0.061 -0.0497  0.9703 -0.2368
              Bcc     0.0011     0.529     0.189     0.177  0.8005 -0.1031 -0.5904
 
              Baa    -0.1378   -18.492    -6.598    -6.168  0.6226  0.3248  0.7120
    27 C(13)  Bbb     0.0476     6.382     2.277     2.129 -0.4916 -0.5455  0.6788
              Bcc     0.0902    12.110     4.321     4.039 -0.6089  0.7726  0.1799
 
              Baa    -0.4753    34.391    12.272    11.472  0.7229  0.3508 -0.5953
    28 O(17)  Bbb    -0.4624    33.456    11.938    11.160 -0.5024  0.8583 -0.1043
              Bcc     0.9376   -67.848   -24.210   -22.631  0.4744  0.3745  0.7967
 
              Baa    -0.0044    -2.346    -0.837    -0.783  0.0286 -0.2188  0.9753
    29 H(1)   Bbb    -0.0009    -0.500    -0.178    -0.167  0.9910 -0.1213 -0.0563
              Bcc     0.0053     2.846     1.016     0.949  0.1306  0.9682  0.2134
 
              Baa    -0.0037    -2.000    -0.714    -0.667 -0.2450  0.7296 -0.6385
    30 H(1)   Bbb    -0.0024    -1.263    -0.451    -0.421 -0.4983  0.4702  0.7284
              Bcc     0.0061     3.264     1.165     1.089  0.8317  0.4966  0.2483
 
              Baa    -0.0042    -2.255    -0.805    -0.752 -0.5249  0.8044 -0.2782
    31 H(1)   Bbb    -0.0023    -1.213    -0.433    -0.405 -0.6896 -0.2103  0.6930
              Bcc     0.0065     3.468     1.237     1.157  0.4989  0.5556  0.6651
 
              Baa    -0.0083    -4.454    -1.589    -1.486 -0.4450  0.8660  0.2280
    32 H(1)   Bbb    -0.0029    -1.571    -0.560    -0.524  0.6549  0.1410  0.7425
              Bcc     0.0113     6.025     2.150     2.010 -0.6108 -0.4797  0.6299
 
              Baa    -0.0093    -4.969    -1.773    -1.657 -0.1746  0.2397  0.9550
    33 H(1)   Bbb     0.0005     0.267     0.095     0.089  0.4631  0.8760 -0.1352
              Bcc     0.0088     4.702     1.678     1.568  0.8690 -0.4186  0.2640
 
              Baa    -0.0084    -4.473    -1.596    -1.492  0.6907  0.3700  0.6213
    34 H(1)   Bbb    -0.0016    -0.864    -0.308    -0.288 -0.6846  0.0580  0.7266
              Bcc     0.0100     5.337     1.904     1.780 -0.2328  0.9272 -0.2933
 
              Baa    -0.0113    -6.048    -2.158    -2.017  0.8468  0.2120  0.4879
    35 H(1)   Bbb    -0.0063    -3.376    -1.205    -1.126  0.0050  0.9140 -0.4057
              Bcc     0.0177     9.424     3.363     3.144 -0.5319  0.3460  0.7729
 
              Baa    -0.0056    -2.979    -1.063    -0.994  0.7061 -0.1001  0.7010
    36 H(1)   Bbb    -0.0011    -0.613    -0.219    -0.204  0.5183  0.7475 -0.4155
              Bcc     0.0067     3.592     1.282     1.198 -0.4824  0.6567  0.5797
 
              Baa    -0.0044    -2.332    -0.832    -0.778  0.5713 -0.1419  0.8084
    37 H(1)   Bbb    -0.0009    -0.465    -0.166    -0.155  0.6367 -0.5449 -0.5456
              Bcc     0.0052     2.796     0.998     0.933  0.5179  0.8264 -0.2209
 
              Baa    -0.0032    -1.734    -0.619    -0.578  0.8603  0.1429 -0.4894
    38 H(1)   Bbb    -0.0015    -0.786    -0.281    -0.262  0.4677  0.1609  0.8691
              Bcc     0.0047     2.520     0.899     0.841 -0.2029  0.9766 -0.0716
 
              Baa    -0.0041    -2.205    -0.787    -0.735 -0.2223  0.4496  0.8651
    39 H(1)   Bbb    -0.0002    -0.087    -0.031    -0.029  0.4084  0.8487 -0.3361
              Bcc     0.0043     2.292     0.818     0.765  0.8853 -0.2786  0.3723
 
              Baa    -0.0037    -1.997    -0.713    -0.666  0.7386  0.6423  0.2045
    40 H(1)   Bbb     0.0002     0.094     0.034     0.031  0.6663 -0.6494 -0.3666
              Bcc     0.0036     1.903     0.679     0.635  0.1026 -0.4070  0.9076
 

 ---------------------------------------------------------------------------------

 No NMR shielding tensors so no spin-rotation constants.
 Leave Link  601 at Sun Mar  3 17:40:06 2024, MaxMem=  5368709120 cpu:         5.8
 (Enter /home/k0335/k033513/app/g09/l9999.exe)
 1\1\GINC-C18U04N2\SP\UCAM-B3LYP\6-31G(d,p)\C12H12F9N3O4(1+,2)\K033513\
 03-Mar-2024\0\\#p CAM-B3LYP/6-31G(d,p) SCRF=(PCM,Solvent=Generic,Read)
  NoSymm out=wfn\\Title A1452355790_p1\\1,2\C,0,3.08331,2.334358,-0.164
 718\C,0,3.304324,1.382425,-1.330826\C,0,2.00007,0.901957,-1.977106\N,0
 ,1.205702,0.048483,-1.091813\C,0,1.527275,-1.29205,-1.023409\O,0,2.513
 624,-1.75939,-1.594167\N,0,0.661767,-2.077071,-0.289913\C,0,0.879374,-
 3.523087,-0.281031\C,0,1.801534,-3.944585,0.854412\C,0,-0.351295,-1.55
 939,0.491346\O,0,-1.139465,-2.293101,1.086621\N,0,-0.43347,-0.191255,0
 .555914\C,0,-1.514182,0.379905,1.346432\F,0,-1.60077,-0.311052,2.52034
 4\F,0,-1.150414,1.624921,1.760303\C,0,-2.896886,0.41389,0.640128\F,0,-
 3.216247,-0.871425,0.261138\O,0,-2.905039,1.105832,-0.615252\C,0,-3.13
 4442,2.492411,-0.529176\F,0,-2.398569,3.053531,0.436574\F,0,-4.43623,2
 .710869,-0.279716\F,0,-2.826085,3.056787,-1.710442\C,0,-3.934564,0.833
 764,1.689954\F,0,-5.179431,0.854136,1.150536\F,0,-3.705413,2.064784,2.
 193071\F,0,-3.990818,-0.01772,2.738096\C,0,0.16174,0.605678,-0.385262\
 O,0,-0.226682,1.75269,-0.603625\H,0,2.478402,3.194607,-0.468104\H,0,4.
 044522,2.709054,0.201478\H,0,2.582657,1.834336,0.669749\H,0,3.899003,1
 .899457,-2.093216\H,0,3.898897,0.528258,-0.987583\H,0,1.410071,1.76513
 5,-2.305105\H,0,2.2454,0.330368,-2.880654\H,0,1.31185,-3.836431,-1.238
 059\H,0,-0.081715,-4.039874,-0.180964\H,0,1.951218,-5.028478,0.839807\
 H,0,2.780616,-3.462403,0.76711\H,0,1.380361,-3.670327,1.827126\\Versio
 n=ES64L-G09RevD.01\HF=-1827.3752968\S2=0.775344\S2-1=0.\S2A=0.750448\R
 MSD=8.131e-09\Dipole=4.9547424,-1.4160829,-2.1413805\Quadrupole=-0.682
 9326,5.776184,-5.0932514,1.7391549,-2.9677018,-2.5940151\PG=C01 [X(C12
 H12F9N3O4)]\\@

 Writing a WFN file to "A1452355790/A1452355790_p1.wfn"


 Some scientists claim that hydrogen, because it is so
 plentiful, is the basic building block of the universe. 
 I dispute that. I say that stupidity is far more
 abundant than hydrogen, and THAT is the basic building 
 block of the universe.
                   --Frank Zappa
 Job cpu time:       0 days  0 hours 56 minutes 19.4 seconds.
 File lengths (MBytes):  RWF=    362 Int=      0 D2E=      0 Chk=     13 Scr=      1
 Normal termination of Gaussian 09 at Sun Mar  3 17:40:07 2024.
