 Entering Gaussian System, Link 0=g09
 Initial command:
 /home/k0335/k033513/app/g09/l1.exe "/home/k0335/k033513/app/g09/scratch/Gau-678937.inp" -scrdir="/home/k0335/k033513/app/g09/scratch/"
 Default is to use a total of  36 processors:
                               36 via shared-memory
                                1 via Linda
 Entering Link 1 = /home/k0335/k033513/app/g09/l1.exe PID=    678938.
  
 Copyright (c) 1988,1990,1992,1993,1995,1998,2003,2009,2013,
            Gaussian, Inc.  All Rights Reserved.
  
 This is part of the Gaussian(R) 09 program.  It is based on
 the Gaussian(R) 03 system (copyright 2003, Gaussian, Inc.),
 the Gaussian(R) 98 system (copyright 1998, Gaussian, Inc.),
 the Gaussian(R) 94 system (copyright 1995, Gaussian, Inc.),
 the Gaussian 92(TM) system (copyright 1992, Gaussian, Inc.),
 the Gaussian 90(TM) system (copyright 1990, Gaussian, Inc.),
 the Gaussian 88(TM) system (copyright 1988, Gaussian, Inc.),
 the Gaussian 86(TM) system (copyright 1986, Carnegie Mellon
 University), and the Gaussian 82(TM) system (copyright 1983,
 Carnegie Mellon University). Gaussian is a federally registered
 trademark of Gaussian, Inc.
  
 This software contains proprietary and confidential information,
 including trade secrets, belonging to Gaussian, Inc.
  
 This software is provided under written license and may be
 used, copied, transmitted, or stored only in accord with that
 written license.
  
 The following legend is applicable only to US Government
 contracts under FAR:
  
                    RESTRICTED RIGHTS LEGEND
  
 Use, reproduction and disclosure by the US Government is
 subject to restrictions as set forth in subparagraphs (a)
 and (c) of the Commercial Computer Software - Restricted
 Rights clause in FAR 52.227-19.
  
 Gaussian, Inc.
 340 Quinnipiac St., Bldg. 40, Wallingford CT 06492
  
  
 ---------------------------------------------------------------
 Warning -- This program may not be used in any manner that
 competes with the business of Gaussian, Inc. or will provide
 assistance to any competitor of Gaussian, Inc.  The licensee
 of this program is prohibited from giving any competitor of
 Gaussian, Inc. access to this program.  By using this program,
 the user acknowledges that Gaussian, Inc. is engaged in the
 business of creating and licensing software in the field of
 computational chemistry and represents and warrants to the
 licensee that it is not a competitor of Gaussian, Inc. and that
 it will not use this program in any manner prohibited above.
 ---------------------------------------------------------------
  

 Cite this work as:
 Gaussian 09, Revision D.01,
 M. J. Frisch, G. W. Trucks, H. B. Schlegel, G. E. Scuseria, 
 M. A. Robb, J. R. Cheeseman, G. Scalmani, V. Barone, B. Mennucci, 
 G. A. Petersson, H. Nakatsuji, M. Caricato, X. Li, H. P. Hratchian, 
 A. F. Izmaylov, J. Bloino, G. Zheng, J. L. Sonnenberg, M. Hada, 
 M. Ehara, K. Toyota, R. Fukuda, J. Hasegawa, M. Ishida, T. Nakajima, 
 Y. Honda, O. Kitao, H. Nakai, T. Vreven, J. A. Montgomery, Jr., 
 J. E. Peralta, F. Ogliaro, M. Bearpark, J. J. Heyd, E. Brothers, 
 K. N. Kudin, V. N. Staroverov, T. Keith, R. Kobayashi, J. Normand, 
 K. Raghavachari, A. Rendell, J. C. Burant, S. S. Iyengar, J. Tomasi, 
 M. Cossi, N. Rega, J. M. Millam, M. Klene, J. E. Knox, J. B. Cross, 
 V. Bakken, C. Adamo, J. Jaramillo, R. Gomperts, R. E. Stratmann, 
 O. Yazyev, A. J. Austin, R. Cammi, C. Pomelli, J. W. Ochterski, 
 R. L. Martin, K. Morokuma, V. G. Zakrzewski, G. A. Voth, 
 P. Salvador, J. J. Dannenberg, S. Dapprich, A. D. Daniels, 
 O. Farkas, J. B. Foresman, J. V. Ortiz, J. Cioslowski, 
 and D. J. Fox, Gaussian, Inc., Wallingford CT, 2013.
 
 ******************************************
 Gaussian 09:  ES64L-G09RevD.01 24-Apr-2013
                 3-Mar-2024 
 ******************************************
 %nprocshared=24
 Will use up to   24 processors via shared memory.
 %mem=40GB
 %rwf=A1452355790/A1452355790_0.rwf
 %nosave
 %chk=A1452355790/A1452355790_0.chk
 ----------------------------------------------------------------------
 #p CAM-B3LYP/6-31G(d,p) SCRF=(PCM,Solvent=Generic,Read) NoSymm out=wfn
 ----------------------------------------------------------------------
 1/38=1,40=2/1;
 2/12=2,15=1,17=6,18=5,40=1/2;
 3/5=1,6=6,7=101,11=2,16=1,25=1,30=1,70=2203,72=-2,74=-40/1,2,3;
 4//1;
 5/5=2,38=5/2;
 6/7=2,8=2,9=2,10=2,28=1/1;
 99/5=1,6=100,9=1/99;
 Leave Link    1 at Sun Mar  3 17:37:12 2024, MaxMem=  5368709120 cpu:         0.8
 (Enter /home/k0335/k033513/app/g09/l101.exe)
 -------------------
 Title A1452355790_0
 -------------------
 Symbolic Z-matrix:
 Charge =  0 Multiplicity = 1
 C                     3.08331   2.33436  -0.16472 
 C                     3.30432   1.38243  -1.33083 
 C                     2.00007   0.90196  -1.97711 
 N                     1.2057    0.04848  -1.09181 
 C                     1.52728  -1.29205  -1.02341 
 O                     2.51362  -1.75939  -1.59417 
 N                     0.66177  -2.07707  -0.28991 
 C                     0.87937  -3.52309  -0.28103 
 C                     1.80153  -3.94459   0.85441 
 C                    -0.3513   -1.55939   0.49135 
 O                    -1.13946  -2.2931    1.08662 
 N                    -0.43347  -0.19126   0.55591 
 C                    -1.51418   0.37991   1.34643 
 F                    -1.60077  -0.31105   2.52034 
 F                    -1.15041   1.62492   1.7603 
 C                    -2.89689   0.41389   0.64013 
 F                    -3.21625  -0.87143   0.26114 
 O                    -2.90504   1.10583  -0.61525 
 C                    -3.13444   2.49241  -0.52918 
 F                    -2.39857   3.05353   0.43657 
 F                    -4.43623   2.71087  -0.27972 
 F                    -2.82609   3.05679  -1.71044 
 C                    -3.93456   0.83376   1.68995 
 F                    -5.17943   0.85414   1.15054 
 F                    -3.70541   2.06478   2.19307 
 F                    -3.99082  -0.01772   2.7381 
 C                     0.16174   0.60568  -0.38526 
 O                    -0.22668   1.75269  -0.60363 
 H                     2.4784    3.19461  -0.4681 
 H                     4.04452   2.70905   0.20148 
 H                     2.58266   1.83434   0.66975 
 H                     3.899     1.89946  -2.09322 
 H                     3.8989    0.52826  -0.98758 
 H                     1.41007   1.76514  -2.30511 
 H                     2.2454    0.33037  -2.88065 
 H                     1.31185  -3.83643  -1.23806 
 H                    -0.08172  -4.03987  -0.18096 
 H                     1.95122  -5.02848   0.83981 
 H                     2.78062  -3.4624    0.76711 
 H                     1.38036  -3.67033   1.82713 
 
 NAtoms=     40 NQM=       40 NQMF=       0 NMMI=      0 NMMIF=      0
                NMic=       0 NMicF=      0.
                    Isotopes and Nuclear Properties:
 (Nuclear quadrupole moments (NQMom) in fm**2, nuclear magnetic moments (NMagM)
  in nuclear magnetons)

  Atom         1           2           3           4           5           6           7           8           9          10
 IAtWgt=          12          12          12          14          12          16          14          12          12          12
 AtmWgt=  12.0000000  12.0000000  12.0000000  14.0030740  12.0000000  15.9949146  14.0030740  12.0000000  12.0000000  12.0000000
 NucSpn=           0           0           0           2           0           0           2           0           0           0
 AtZEff=   0.0000000   0.0000000   0.0000000   0.0000000   0.0000000   0.0000000   0.0000000   0.0000000   0.0000000   0.0000000
 NQMom=    0.0000000   0.0000000   0.0000000   2.0440000   0.0000000   0.0000000   2.0440000   0.0000000   0.0000000   0.0000000
 NMagM=    0.0000000   0.0000000   0.0000000   0.4037610   0.0000000   0.0000000   0.4037610   0.0000000   0.0000000   0.0000000
 AtZNuc=   6.0000000   6.0000000   6.0000000   7.0000000   6.0000000   8.0000000   7.0000000   6.0000000   6.0000000   6.0000000

  Atom        11          12          13          14          15          16          17          18          19          20
 IAtWgt=          16          14          12          19          19          12          19          16          12          19
 AtmWgt=  15.9949146  14.0030740  12.0000000  18.9984033  18.9984033  12.0000000  18.9984033  15.9949146  12.0000000  18.9984033
 NucSpn=           0           2           0           1           1           0           1           0           0           1
 AtZEff=   0.0000000   0.0000000   0.0000000   0.0000000   0.0000000   0.0000000   0.0000000   0.0000000   0.0000000   0.0000000
 NQMom=    0.0000000   2.0440000   0.0000000   0.0000000   0.0000000   0.0000000   0.0000000   0.0000000   0.0000000   0.0000000
 NMagM=    0.0000000   0.4037610   0.0000000   2.6288670   2.6288670   0.0000000   2.6288670   0.0000000   0.0000000   2.6288670
 AtZNuc=   8.0000000   7.0000000   6.0000000   9.0000000   9.0000000   6.0000000   9.0000000   8.0000000   6.0000000   9.0000000

  Atom        21          22          23          24          25          26          27          28          29          30
 IAtWgt=          19          19          12          19          19          19          12          16           1           1
 AtmWgt=  18.9984033  18.9984033  12.0000000  18.9984033  18.9984033  18.9984033  12.0000000  15.9949146   1.0078250   1.0078250
 NucSpn=           1           1           0           1           1           1           0           0           1           1
 AtZEff=   0.0000000   0.0000000   0.0000000   0.0000000   0.0000000   0.0000000   0.0000000   0.0000000   0.0000000   0.0000000
 NQMom=    0.0000000   0.0000000   0.0000000   0.0000000   0.0000000   0.0000000   0.0000000   0.0000000   0.0000000   0.0000000
 NMagM=    2.6288670   2.6288670   0.0000000   2.6288670   2.6288670   2.6288670   0.0000000   0.0000000   2.7928460   2.7928460
 AtZNuc=   9.0000000   9.0000000   6.0000000   9.0000000   9.0000000   9.0000000   6.0000000   8.0000000   1.0000000   1.0000000

  Atom        31          32          33          34          35          36          37          38          39          40
 IAtWgt=           1           1           1           1           1           1           1           1           1           1
 AtmWgt=   1.0078250   1.0078250   1.0078250   1.0078250   1.0078250   1.0078250   1.0078250   1.0078250   1.0078250   1.0078250
 NucSpn=           1           1           1           1           1           1           1           1           1           1
 AtZEff=   0.0000000   0.0000000   0.0000000   0.0000000   0.0000000   0.0000000   0.0000000   0.0000000   0.0000000   0.0000000
 NQMom=    0.0000000   0.0000000   0.0000000   0.0000000   0.0000000   0.0000000   0.0000000   0.0000000   0.0000000   0.0000000
 NMagM=    2.7928460   2.7928460   2.7928460   2.7928460   2.7928460   2.7928460   2.7928460   2.7928460   2.7928460   2.7928460
 AtZNuc=   1.0000000   1.0000000   1.0000000   1.0000000   1.0000000   1.0000000   1.0000000   1.0000000   1.0000000   1.0000000
 Leave Link  101 at Sun Mar  3 17:37:12 2024, MaxMem=  5368709120 cpu:         0.8
 (Enter /home/k0335/k033513/app/g09/l202.exe)
                          Input orientation:                          
 ---------------------------------------------------------------------
 Center     Atomic      Atomic             Coordinates (Angstroms)
 Number     Number       Type             X           Y           Z
 ---------------------------------------------------------------------
      1          6           0        3.083310    2.334358   -0.164718
      2          6           0        3.304324    1.382425   -1.330826
      3          6           0        2.000070    0.901957   -1.977106
      4          7           0        1.205702    0.048483   -1.091813
      5          6           0        1.527275   -1.292050   -1.023409
      6          8           0        2.513624   -1.759390   -1.594167
      7          7           0        0.661767   -2.077071   -0.289913
      8          6           0        0.879374   -3.523087   -0.281031
      9          6           0        1.801534   -3.944585    0.854412
     10          6           0       -0.351295   -1.559390    0.491346
     11          8           0       -1.139465   -2.293101    1.086621
     12          7           0       -0.433470   -0.191255    0.555914
     13          6           0       -1.514182    0.379905    1.346432
     14          9           0       -1.600770   -0.311052    2.520344
     15          9           0       -1.150414    1.624921    1.760303
     16          6           0       -2.896886    0.413890    0.640128
     17          9           0       -3.216247   -0.871425    0.261138
     18          8           0       -2.905039    1.105832   -0.615252
     19          6           0       -3.134442    2.492411   -0.529176
     20          9           0       -2.398569    3.053531    0.436574
     21          9           0       -4.436230    2.710869   -0.279716
     22          9           0       -2.826085    3.056787   -1.710442
     23          6           0       -3.934564    0.833764    1.689954
     24          9           0       -5.179431    0.854136    1.150536
     25          9           0       -3.705413    2.064784    2.193071
     26          9           0       -3.990818   -0.017720    2.738096
     27          6           0        0.161740    0.605678   -0.385262
     28          8           0       -0.226682    1.752690   -0.603625
     29          1           0        2.478402    3.194607   -0.468104
     30          1           0        4.044522    2.709054    0.201478
     31          1           0        2.582657    1.834336    0.669749
     32          1           0        3.899003    1.899457   -2.093216
     33          1           0        3.898897    0.528258   -0.987583
     34          1           0        1.410071    1.765135   -2.305105
     35          1           0        2.245400    0.330368   -2.880654
     36          1           0        1.311850   -3.836431   -1.238059
     37          1           0       -0.081715   -4.039874   -0.180964
     38          1           0        1.951218   -5.028478    0.839807
     39          1           0        2.780616   -3.462403    0.767110
     40          1           0        1.380361   -3.670327    1.827126
 ---------------------------------------------------------------------
                    Distance matrix (angstroms):
                    1          2          3          4          5
     1  C    0.000000
     2  C    1.521457   0.000000
     3  C    2.551457   1.532842   0.000000
     4  N    3.100023   2.498148   1.463961   0.000000
     5  C    4.038494   3.225713   2.438594   1.380260   0.000000
     6  O    4.373401   3.250470   2.737361   2.287231   1.231688
     7  N    5.033910   4.476016   3.675906   2.335998   1.379630
     8  C    6.259435   5.571939   4.869666   3.676951   2.438940
     9  C    6.488968   5.950687   5.616572   4.481897   3.261498
    10  C    5.233374   5.033700   4.204807   2.741512   2.427958
    11  O    6.388353   6.253063   5.426924   3.965905   3.544832
    12  N    4.389279   4.472959   3.678780   2.336528   2.747823
    13  C    5.219233   5.602745   4.865019   3.667785   4.202623
    14  F    6.012350   6.462145   5.887656   4.588380   4.827547
    15  F    4.704617   5.427575   4.941301   4.021319   4.840226
    16  C    6.332355   6.578581   5.573895   4.468151   5.025016
    17  F    7.081159   7.080398   5.946813   4.714906   4.932341
    18  O    6.129648   6.256576   5.094733   4.271216   5.055872
    19  C    6.230429   6.582736   5.566800   5.012604   6.024784
    20  F    5.561453   6.199942   5.459226   4.935286   6.035551
    21  F    7.529838   7.923747   6.897772   6.291200   7.220792
    22  F    6.150782   6.366279   5.292086   5.068323   6.191619
    23  C    7.412297   7.863055   6.976522   5.897222   6.458569
    24  F    8.496696   8.854962   7.831326   6.815213   7.369671
    25  F    7.191564   7.875270   7.162058   6.242995   6.999650
    26  F    8.000118   8.469689   7.679171   6.455727   6.798690
    27  C    3.401844   3.372427   2.449736   1.378237   2.423487
    28  O    3.389251   3.624075   2.751113   2.279117   3.538789
    29  H    1.094525   2.170355   2.786060   3.450634   4.619859
    30  H    1.094726   2.157729   3.491649   4.100017   4.883207
    31  H    1.094080   2.174242   2.866109   2.861534   3.708761
    32  H    2.138597   1.096451   2.148123   3.418009   4.117681
    33  H    2.145760   1.095871   2.173557   2.737581   2.989882
    34  H    2.775788   2.164228   1.095791   2.112046   3.317056
    35  H    3.477697   2.151769   1.096950   2.088153   2.568521
    36  H    6.509130   5.587040   4.844807   3.889115   2.562490
    37  H    7.116775   6.495288   5.655232   4.381980   3.293797
    38  H    7.516785   6.902334   6.565626   5.482926   4.196689
    39  H    5.878977   5.305465   5.214174   4.273438   3.080139
    40  H    6.551620   6.261357   5.980134   4.730778   3.715284
                    6          7          8          9         10
     6  O    0.000000
     7  N    2.287220   0.000000
     8  C    2.739658   1.462325   0.000000
     9  C    3.358227   2.469040   1.522258   0.000000
    10  C    3.549243   1.380092   2.442789   3.233519   0.000000
    11  O    4.562514   2.277268   2.731126   3.380946   1.230405
    12  N    3.970801   2.339074   3.677654   4.378565   1.372121
    13  C    5.426502   3.667303   4.859125   5.471496   2.417508
    14  F    5.996259   4.016894   4.931124   5.249149   2.690050
    15  F    6.010924   4.603491   5.898226   6.368205   3.519756
    16  C    6.244104   4.442283   5.532491   6.412283   3.224283
    17  F    6.087862   4.098321   4.909111   5.913917   2.955375
    18  O    6.207228   4.791536   5.988353   7.058219   3.853515
    19  C    7.149312   5.945470   7.235918   8.228797   5.020405
    20  F    7.170618   6.018016   7.383209   8.172459   5.047115
    21  F    8.367286   6.993858   8.192549   9.191899   5.959559
    22  F    7.191771   6.367065   7.685596   8.775679   5.681685
    23  C    7.686939   5.789568   6.785347   7.512228   4.472546
    24  F    8.575955   6.692269   7.610426   8.476396   5.437880
    25  F    8.224591   6.510947   7.639748   8.260205   5.223085
    26  F    8.006852   5.920837   6.717254   7.247060   4.546511
    27  C    3.547726   2.730615   4.191964   4.993056   2.391478
    28  O    4.563459   3.943961   5.400116   6.220810   3.490611
    29  H    5.080487   5.578755   6.907916   7.292137   5.614999
    30  H    5.053215   5.881453   7.006465   7.051825   6.134072
    31  H    4.247935   4.462048   5.701503   5.834396   4.489686
    32  H    3.944044   5.435474   6.465768   6.873188   6.058764
    33  H    2.742309   4.213489   5.101973   5.272400   4.960810
    34  H    3.761056   4.402670   5.687162   6.537331   4.687752
    35  H    2.468619   3.874996   4.844913   5.694116   4.656651
    36  H    2.425938   2.101651   1.095957   2.151725   3.307840
    37  H    3.732765   2.101721   1.095798   2.151211   2.584081
    38  H    4.114300   3.413174   2.161326   1.094277   4.178225
    39  H    2.923554   2.743349   2.171866   1.094862   3.675101
    40  H    4.079364   2.745304   2.171864   1.094887   3.039572
                   11         12         13         14         15
    11  O    0.000000
    12  N    2.279876   0.000000
    13  C    2.711619   1.455706   0.000000
    14  F    2.489354   2.288215   1.364913   0.000000
    15  F    3.975533   2.294135   1.361500   2.128021   0.000000
    16  C    3.258172   2.538053   1.553026   2.395969   2.402406
    17  F    2.648699   2.879822   2.375019   2.833336   3.570281
    18  O    4.191225   3.026998   2.511903   3.679761   2.998570
    19  C    5.430641   3.959133   3.256659   4.417140   3.151289
    20  F    5.531218   3.795325   2.959435   4.037202   2.313239
    21  F    6.146158   5.014249   4.076287   5.001217   4.017157
    22  F    6.268138   4.627175   4.269809   5.544663   4.111470
    23  C    4.237201   3.820258   2.486412   2.728873   2.895232
    24  F    5.121573   4.895974   3.700989   4.005103   4.147156
    25  F    5.176822   4.298326   2.890866   3.190803   2.628457
    26  F    4.004365   4.176932   2.868547   2.417807   3.423776
    27  C    3.501784   1.369376   2.420424   3.519855   2.713679
    28  O    4.478675   2.272931   2.710151   3.988274   2.541213
    29  H    6.754337   4.581667   5.211124   6.153057   4.538504
    30  H    7.258013   5.346946   6.134741   6.809369   5.531061
    31  H    5.573483   3.634969   4.399700   5.052569   3.894738
    32  H    7.285264   5.491747   6.591114   7.511244   6.357798
    33  H    6.135754   4.655049   5.896699   6.576954   5.852272
    34  H    5.871390   3.925753   4.878918   6.054806   4.806588
    35  H    5.837737   4.388443   5.657311   6.661473   5.894565
    36  H    3.714155   4.421741   5.695923   5.919227   6.699200
    37  H    2.403502   3.934284   4.890741   4.848578   6.082807
    38  H    4.134674   5.400561   6.443312   6.139620   7.398321
    39  H    4.103217   4.590791   5.791738   5.674626   6.505405
    40  H    2.965573   4.124307   5.001382   4.544494   5.869322
                   16         17         18         19         20
    16  C    0.000000
    17  F    1.377556   0.000000
    18  O    1.433468   2.185053   0.000000
    19  C    2.396655   3.456397   1.408061   0.000000
    20  F    2.693967   4.013061   2.270767   1.337549   0.000000
    21  F    2.914070   3.822788   2.243496   1.343356   2.186904
    22  F    3.537668   4.412505   2.238727   1.344988   2.189168
    23  C    1.534668   2.337769   2.539275   2.883720   2.976173
    24  F    2.379988   2.760920   2.890366   3.112452   3.616666
    25  F    2.406408   3.548658   3.073575   2.814161   2.402237
    26  F    2.405087   2.732049   3.699490   4.208230   4.155098
    27  C    3.231625   3.743055   3.115796   3.800696   3.636287
    28  O    3.235629   4.070785   2.755387   3.001299   2.737023
    29  H    6.152584   7.035157   5.776337   5.656927   4.962176
    30  H    7.324161   8.095811   7.178702   7.219301   6.456575
    31  H    5.660736   6.412129   5.683023   5.878410   5.133558
    32  H    7.474101   7.990466   7.007796   7.229603   6.884122
    33  H    6.988933   7.358240   6.838550   7.316822   6.932770
    34  H    5.389818   5.910996   4.680861   4.933098   4.866468
    35  H    6.232655   6.414417   5.679825   6.256723   6.323454
    36  H    6.269472   5.616272   6.526561   7.766999   8.002698
    37  H    5.332485   4.478818   5.885410   7.218805   7.487694
    38  H    7.291320   6.657225   7.958027   9.181602   9.187062
    39  H    6.875740   6.552216   7.423366   8.492825   8.330102
    40  H    6.031968   5.604906   6.865971   7.994682   7.837360
                   21         22         23         24         25
    21  F    0.000000
    22  F    2.181560   0.000000
    23  C    2.766729   4.211087   0.000000
    24  F    2.458745   4.309884   1.356864   0.000000
    25  F    2.658232   4.122463   1.349462   2.173770   0.000000
    26  F    4.092772   5.531608   1.351588   2.166398   2.171481
    27  C    5.058092   4.085479   4.597635   5.563139   4.871516
    28  O    4.329355   3.111689   4.455706   5.330497   4.474425
    29  H    6.934092   5.449769   7.166375   8.169468   6.826267
    30  H    8.494393   7.140140   8.330551   9.456360   8.027641
    31  H    7.136846   6.034417   6.672041   7.838492   6.474059
    32  H    8.568739   6.834672   8.764294   9.697040   8.730792
    33  H    8.645184   7.220898   8.284060   9.332405   8.384689
    34  H    6.259061   4.468446   6.737438   7.496193   6.818471
    35  H    7.554856   5.875604   7.702975   8.464806   8.010185
    36  H    8.765043   8.053701   7.609786   8.357244   8.471713
    37  H    8.033933   7.761022   6.488230   7.191032   7.485591
    38  H   10.097045   9.731285   8.350513   9.249208   9.172958
    39  H    9.554475   8.948363   8.025107   9.063215   8.640123
    40  H    8.887698   8.686923   6.968076   7.997463   7.674015
                   26         27         28         29         30
    26  F    0.000000
    27  C    5.233329   0.000000
    28  O    5.335745   1.230525   0.000000
    29  H    7.902504   3.475103   3.068382   0.000000
    30  H    8.856434   4.454711   4.450394   1.771111   0.000000
    31  H    7.135737   2.912643   3.085536   1.776490   1.766765
    32  H    9.448091   4.307912   4.388815   2.517242   2.437672
    33  H    8.742218   3.786176   4.320539   3.065466   2.488161
    34  H    7.601451   2.566801   2.360964   2.561112   3.756897
    35  H    8.401305   3.262578   3.649527   3.752140   4.288884
    36  H    7.649225   4.667156   5.831626   7.168624   7.237620
    37  H    6.322952   4.656411   5.809772   7.679477   7.919604
    38  H    8.001187   6.037113   7.267117   8.343122   8.041069
    39  H    7.848754   4.973505   6.174136   6.777379   6.324894
    40  H    6.559037   4.966278   6.156318   7.321277   7.101900
                   31         32         33         34         35
    31  H    0.000000
    32  H    3.061206   0.000000
    33  H    2.486981   1.761423   0.000000
    34  H    3.198359   2.501544   3.075709   0.000000
    35  H    3.870533   2.411742   2.521295   1.757153   0.000000
    36  H    6.116558   6.350202   5.079967   5.703137   4.575134
    37  H    6.506069   7.401248   6.112588   6.358894   5.639398
    38  H    6.893900   7.771279   6.165235   7.505764   6.530360
    39  H    5.301331   6.179142   4.500542   6.216434   5.289400
    40  H    5.752074   7.261896   5.647453   6.827918   6.238353
                   36         37         38         39         40
    36  H    0.000000
    37  H    1.760927   0.000000
    38  H    2.479374   2.480348   0.000000
    39  H    2.513538   3.070058   1.773634   0.000000
    40  H    3.070447   2.511306   1.773485   1.768497   0.000000
 Symmetry turned off by external request.
 Stoichiometry    C12H12F9N3O4
 Framework group  C1[X(C12H12F9N3O4)]
 Deg. of freedom   114
 Full point group                 C1      NOp   1
 Rotational constants (GHZ):      0.2908395      0.1442739      0.1138552
 Leave Link  202 at Sun Mar  3 17:37:12 2024, MaxMem=  5368709120 cpu:         0.1
 (Enter /home/k0335/k033513/app/g09/l301.exe)
 Standard basis: 6-31G(d,p) (6D, 7F)
 Ernie: Thresh=  0.10000D-02 Tol=  0.10000D-05 Strict=F.
   480 basis functions,   868 primitive gaussians,   480 cartesian basis functions
   109 alpha electrons      109 beta electrons
       nuclear repulsion energy      3385.6288934053 Hartrees.
 IExCor=20419 DFT=T Ex+Corr=CAM-B3LYP ExCW=0 ScaHFX=  1.000000
 ScaDFX=  1.000000  1.000000  1.000000  0.810000 ScalE2=  1.000000  1.000000
 IRadAn=      0 IRanWt=     -1 IRanGd=            0 ICorTp=0 IEmpDi=  4
  HFx wShort=  0.000000 wLong=  0.330000 cFull=  0.190000 cShort=  0.000000 cLong=  0.460000
  DFx wShort=  0.000000 wLong=  0.330000 cFull=  0.190000 cShort=  0.000000 cLong=  0.460000
 NAtoms=   40 NActive=   40 NUniq=   40 SFac= 1.00D+00 NAtFMM=   60 NAOKFM=F Big=F
 Integral buffers will be    131072 words long.
 Raffenetti 2 integral format.
 Two-electron integral symmetry is turned off.
 Using the following non-standard input for PCM:
 eps=4.9
 --- end of non-standard input.
 ------------------------------------------------------------------------------
 Polarizable Continuum Model (PCM)
 =================================
 Model                : PCM (using non-symmetric T matrix).
 Atomic radii         : UFF (Universal Force Field).
 Polarization charges : Total charges.
 Charge compensation  : None.
 Solution method      : On-the-fly selection.
 Cavity type          : Scaled VdW (van der Waals Surface) (Alpha=1.100).
 Cavity algorithm     : GePol (No added spheres)
                        Default sphere list used, NSphG=   40.
                        Lebedev-Laikov grids with approx.  5.0 points / Ang**2.
                        Smoothing algorithm: Karplus/York (Gamma=1.0000).
                        Polarization charges: spherical gaussians, with
                                              point-specific exponents (IZeta= 3).
                        Self-potential: point-specific (ISelfS= 7).
                        Self-field    : sphere-specific E.n sum rule (ISelfD= 2).
 Solvent              : Generic,
                        Eps                           =   4.900000
                        Eps(infinity)                 =   0.000000
                        RSolv                         =   0.000000 Ang.
                        Molar volume                  =   0.000000 cm**3/mol
                        Thermal expansion coefficient =   0.000000 K**-1
                        Absolute temperature          = 298.150000 K
                        Numeral density               =   0.000000 Ang**-3
                        Hydrogen bond acidity         =   0.000000
                        Hydrogen bond basicity        =   0.000000
                        Surface tension at interface  =   0.000000 (cal/mol)*Ang**-2
                        Carbon aromaticity            =   0.000000
                        Electronegative halogenicity  =   0.000000
 ------------------------------------------------------------------------------
 GePol: Number of generator spheres                  =      40
 GePol: Total number of spheres                      =      40
 GePol: Number of exposed spheres                    =      40 (100.00%)
 GePol: Number of points                             =    2961
 GePol: Average weight of points                     =       0.13
 GePol: Minimum weight of points                     =   0.22D-11
 GePol: Maximum weight of points                     =    0.20577
 GePol: Number of points with low weight             =     162
 GePol: Fraction of low-weight points (<1% of avg)   =       5.47%
 GePol: Cavity surface area                          =    380.312 Ang**2
 GePol: Cavity volume                                =    434.803 Ang**3
 Leave Link  301 at Sun Mar  3 17:37:12 2024, MaxMem=  5368709120 cpu:         0.8
 (Enter /home/k0335/k033513/app/g09/l302.exe)
 NPDir=0 NMtPBC=     1 NCelOv=     1 NCel=       1 NClECP=     1 NCelD=      1
         NCelK=      1 NCelE2=     1 NClLst=     1 CellRange=     0.0.
 One-electron integrals computed using PRISM.
 NBasis=   480 RedAO= T EigKep=  1.20D-03  NBF=   480
 NBsUse=   480 1.00D-06 EigRej= -1.00D+00 NBFU=   480
 Precomputing XC quadrature grid using
 IXCGrd= 4 IRadAn=           0 IRanWt=          -1 IRanGd=           0 AccXCQ= 0.00D+00.
 Generated NRdTot=       0 NPtTot=           0 NUsed=           0 NTot=          32
 NSgBfM=   474   474   474   474   474 MxSgAt=    40 MxSgA2=    40.
 Leave Link  302 at Sun Mar  3 17:37:12 2024, MaxMem=  5368709120 cpu:         7.8
 (Enter /home/k0335/k033513/app/g09/l303.exe)
 DipDrv:  MaxL=1.
 Leave Link  303 at Sun Mar  3 17:37:12 2024, MaxMem=  5368709120 cpu:         0.7
 (Enter /home/k0335/k033513/app/g09/l401.exe)
 ExpMin= 1.61D-01 ExpMax= 7.00D+03 ExpMxC= 1.05D+03 IAcc=1 IRadAn=         1 AccDes= 0.00D+00
 Harris functional with IExCor=20419 and IRadAn=       1 diagonalized for initial guess.
 HarFok:  IExCor=20419 AccDes= 0.00D+00 IRadAn=         1 IDoV= 1 UseB2=F ITyADJ=14
 ICtDFT=  3500011 ScaDFX=  1.000000  1.000000  1.000000  1.000000
 FoFCou: FMM=F IPFlag=           0 FMFlag=      100000 FMFlg1=           0
         NFxFlg=           0 DoJE=T BraDBF=F KetDBF=T FulRan=T
         wScrn=  0.000000 ICntrl=     500 IOpCl=  0 I1Cent=   200000004 NGrid=           0
         NMat0=    1 NMatS0=      1 NMatT0=    0 NMatD0=    1 NMtDS0=    0 NMtDT0=    0
 Symmetry not used in FoFCou.
 Harris En= -1769.66575443787    
 JPrj=0 DoOrth=F DoCkMO=F.
 Leave Link  401 at Sun Mar  3 17:37:13 2024, MaxMem=  5368709120 cpu:         9.4
 (Enter /home/k0335/k033513/app/g09/l502.exe)
 Closed shell SCF:
 Using DIIS extrapolation, IDIIS=  1040.
 Two-electron integral symmetry not used.
 IVT=      724230 IEndB=      724230 NGot=  5368709120 MDV=  5368232411
 LenX=  5368232411 LenY=  5368001531
 Requested convergence on RMS density matrix=1.00D-08 within 128 cycles.
 Requested convergence on MAX density matrix=1.00D-06.
 Requested convergence on             energy=1.00D-06.
 No special actions if energy rises.
 Fock matrices will be formed incrementally for  20 cycles.

 Cycle   1  Pass 1  IDiag  1:
 FoFJK:  IHMeth= 1 ICntrl=       0 DoSepK=T KAlg= 0 I1Cent=   0 FoldK=F
 IRaf=         1 NMat=   1 IRICut=       1 DoRegI=T DoRafI=F ISym2E= 0.
 FoFCou: FMM=F IPFlag=           0 FMFlag=      100000 FMFlg1=           0
         NFxFlg=           0 DoJE=T BraDBF=F KetDBF=F FulRan=T
         wScrn=  0.000000 ICntrl=     500 IOpCl=  0 I1Cent=           0 NGrid=           0
         NMat0=    1 NMatS0=      1 NMatT0=    0 NMatD0=    1 NMtDS0=    0 NMtDT0=    0
 Symmetry not used in FoFCou.
 Inv3:  Mode=1 IEnd=    26302563.
 Iteration    1 A*A^-1 deviation from unit magnitude is 6.22D-15 for   2960.
 Iteration    1 A*A^-1 deviation from orthogonality  is 4.88D-15 for   2957    603.
 Iteration    1 A^-1*A deviation from unit magnitude is 7.22D-15 for   2950.
 Iteration    1 A^-1*A deviation from orthogonality  is 6.55D-14 for   2777   2739.
 E= -1827.08328070070    
 DIIS: error= 5.41D-02 at cycle   1 NSaved=   1.
 NSaved= 1 IEnMin= 1 EnMin= -1827.08328070070     IErMin= 1 ErrMin= 5.41D-02
 ErrMax= 5.41D-02  0.00D+00 EMaxC= 1.00D-01 BMatC= 1.51D+00 BMatP= 1.51D+00
 IDIUse=3 WtCom= 4.59D-01 WtEn= 5.41D-01
 Coeff-Com:  0.100D+01
 Coeff-En:   0.100D+01
 Coeff:      0.100D+01
 Gap=     0.451 Goal=   None    Shift=    0.000
 GapD=    0.451 DampG=2.000 DampE=0.500 DampFc=1.0000 IDamp=-1.
 RMSDP=3.21D-03 MaxDP=1.36D-01              OVMax= 1.80D-01

 Cycle   2  Pass 1  IDiag  1:
 RMSU=  3.21D-03    CP:  1.01D+00
 E= -1827.26615520605     Delta-E=       -0.182874505344 Rises=F Damp=F
 DIIS: error= 1.96D-02 at cycle   2 NSaved=   2.
 NSaved= 2 IEnMin= 2 EnMin= -1827.26615520605     IErMin= 2 ErrMin= 1.96D-02
 ErrMax= 1.96D-02  0.00D+00 EMaxC= 1.00D-01 BMatC= 6.13D-01 BMatP= 1.51D+00
 IDIUse=3 WtCom= 8.04D-01 WtEn= 1.96D-01
 Coeff-Com:  0.365D+00 0.635D+00
 Coeff-En:   0.389D+00 0.611D+00
 Coeff:      0.370D+00 0.630D+00
 Gap=     0.450 Goal=   None    Shift=    0.000
 RMSDP=1.82D-03 MaxDP=1.21D-01 DE=-1.83D-01 OVMax= 1.25D-01

 Cycle   3  Pass 1  IDiag  1:
 RMSU=  1.13D-03    CP:  1.00D+00  5.56D-01
 E= -1827.56281181558     Delta-E=       -0.296656609527 Rises=F Damp=F
 DIIS: error= 1.38D-02 at cycle   3 NSaved=   3.
 NSaved= 3 IEnMin= 3 EnMin= -1827.56281181558     IErMin= 3 ErrMin= 1.38D-02
 ErrMax= 1.38D-02  0.00D+00 EMaxC= 1.00D-01 BMatC= 1.76D-01 BMatP= 6.13D-01
 IDIUse=3 WtCom= 8.62D-01 WtEn= 1.38D-01
 Coeff-Com:  0.107D+00 0.358D+00 0.535D+00
 Coeff-En:   0.000D+00 0.225D+00 0.775D+00
 Coeff:      0.921D-01 0.339D+00 0.568D+00
 Gap=     0.375 Goal=   None    Shift=    0.000
 RMSDP=8.64D-04 MaxDP=5.75D-02 DE=-2.97D-01 OVMax= 8.88D-02

 Cycle   4  Pass 1  IDiag  1:
 RMSU=  3.78D-04    CP:  1.00D+00  6.82D-01  4.15D-01
 E= -1827.67782367315     Delta-E=       -0.115011857575 Rises=F Damp=F
 DIIS: error= 4.27D-03 at cycle   4 NSaved=   4.
 NSaved= 4 IEnMin= 4 EnMin= -1827.67782367315     IErMin= 4 ErrMin= 4.27D-03
 ErrMax= 4.27D-03  0.00D+00 EMaxC= 1.00D-01 BMatC= 1.80D-02 BMatP= 1.76D-01
 IDIUse=3 WtCom= 9.57D-01 WtEn= 4.27D-02
 Coeff-Com:  0.614D-02 0.955D-01 0.296D+00 0.603D+00
 Coeff-En:   0.000D+00 0.000D+00 0.554D-01 0.945D+00
 Coeff:      0.588D-02 0.914D-01 0.286D+00 0.617D+00
 Gap=     0.366 Goal=   None    Shift=    0.000
 RMSDP=2.55D-04 MaxDP=1.72D-02 DE=-1.15D-01 OVMax= 1.98D-02

 Cycle   5  Pass 1  IDiag  1:
 RMSU=  1.01D-04    CP:  1.00D+00  6.72D-01  5.84D-01  6.58D-01
 E= -1827.68995266346     Delta-E=       -0.012128990307 Rises=F Damp=F
 DIIS: error= 7.23D-04 at cycle   5 NSaved=   5.
 NSaved= 5 IEnMin= 5 EnMin= -1827.68995266346     IErMin= 5 ErrMin= 7.23D-04
 ErrMax= 7.23D-04  0.00D+00 EMaxC= 1.00D-01 BMatC= 8.11D-04 BMatP= 1.80D-02
 IDIUse=3 WtCom= 9.93D-01 WtEn= 7.23D-03
 Coeff-Com: -0.144D-02 0.285D-01 0.114D+00 0.312D+00 0.547D+00
 Coeff-En:   0.000D+00 0.000D+00 0.000D+00 0.000D+00 0.100D+01
 Coeff:     -0.143D-02 0.283D-01 0.113D+00 0.310D+00 0.550D+00
 Gap=     0.360 Goal=   None    Shift=    0.000
 RMSDP=5.11D-05 MaxDP=2.72D-03 DE=-1.21D-02 OVMax= 3.73D-03

 Cycle   6  Pass 1  IDiag  1:
 RMSU=  2.93D-05    CP:  1.00D+00  6.76D-01  5.74D-01  6.96D-01  6.57D-01
 E= -1827.69052940698     Delta-E=       -0.000576743523 Rises=F Damp=F
 DIIS: error= 1.45D-04 at cycle   6 NSaved=   6.
 NSaved= 6 IEnMin= 6 EnMin= -1827.69052940698     IErMin= 6 ErrMin= 1.45D-04
 ErrMax= 1.45D-04  0.00D+00 EMaxC= 1.00D-01 BMatC= 2.88D-05 BMatP= 8.11D-04
 IDIUse=3 WtCom= 9.99D-01 WtEn= 1.45D-03
 Coeff-Com: -0.869D-03-0.861D-03 0.507D-02 0.335D-01 0.184D+00 0.779D+00
 Coeff-En:   0.000D+00 0.000D+00 0.000D+00 0.000D+00 0.000D+00 0.100D+01
 Coeff:     -0.868D-03-0.860D-03 0.507D-02 0.335D-01 0.184D+00 0.780D+00
 Gap=     0.361 Goal=   None    Shift=    0.000
 RMSDP=1.34D-05 MaxDP=7.32D-04 DE=-5.77D-04 OVMax= 7.99D-04

 Cycle   7  Pass 1  IDiag  1:
 RMSU=  9.11D-06    CP:  1.00D+00  6.76D-01  5.77D-01  7.09D-01  7.26D-01
                    CP:  9.22D-01
 E= -1827.69055139650     Delta-E=       -0.000021989519 Rises=F Damp=F
 DIIS: error= 4.63D-05 at cycle   7 NSaved=   7.
 NSaved= 7 IEnMin= 7 EnMin= -1827.69055139650     IErMin= 7 ErrMin= 4.63D-05
 ErrMax= 4.63D-05  0.00D+00 EMaxC= 1.00D-01 BMatC= 4.29D-06 BMatP= 2.88D-05
 IDIUse=1 WtCom= 1.00D+00 WtEn= 0.00D+00
 Coeff-Com: -0.148D-03-0.314D-02-0.842D-02-0.146D-01 0.334D-01 0.347D+00
 Coeff-Com:  0.646D+00
 Coeff:     -0.148D-03-0.314D-02-0.842D-02-0.146D-01 0.334D-01 0.347D+00
 Coeff:      0.646D+00
 Gap=     0.361 Goal=   None    Shift=    0.000
 RMSDP=4.26D-06 MaxDP=2.25D-04 DE=-2.20D-05 OVMax= 3.42D-04

 Cycle   8  Pass 1  IDiag  1:
 RMSU=  2.57D-06    CP:  1.00D+00  6.76D-01  5.78D-01  7.09D-01  7.42D-01
                    CP:  1.00D+00  8.03D-01
 E= -1827.69055535287     Delta-E=       -0.000003956373 Rises=F Damp=F
 DIIS: error= 7.30D-06 at cycle   8 NSaved=   8.
 NSaved= 8 IEnMin= 8 EnMin= -1827.69055535287     IErMin= 8 ErrMin= 7.30D-06
 ErrMax= 7.30D-06  0.00D+00 EMaxC= 1.00D-01 BMatC= 1.42D-07 BMatP= 4.29D-06
 IDIUse=1 WtCom= 1.00D+00 WtEn= 0.00D+00
 Coeff-Com:  0.145D-04-0.731D-03-0.225D-02-0.630D-02-0.667D-02 0.148D-01
 Coeff-Com:  0.129D+00 0.872D+00
 Coeff:      0.145D-04-0.731D-03-0.225D-02-0.630D-02-0.667D-02 0.148D-01
 Coeff:      0.129D+00 0.872D+00
 Gap=     0.361 Goal=   None    Shift=    0.000
 RMSDP=1.41D-06 MaxDP=1.07D-04 DE=-3.96D-06 OVMax= 1.55D-04

 Cycle   9  Pass 1  IDiag  1:
 RMSU=  8.12D-07    CP:  1.00D+00  6.76D-01  5.78D-01  7.09D-01  7.47D-01
                    CP:  1.02D+00  8.75D-01  1.13D+00
 E= -1827.69055553532     Delta-E=       -0.000000182448 Rises=F Damp=F
 DIIS: error= 5.35D-06 at cycle   9 NSaved=   9.
 NSaved= 9 IEnMin= 9 EnMin= -1827.69055553532     IErMin= 9 ErrMin= 5.35D-06
 ErrMax= 5.35D-06  0.00D+00 EMaxC= 1.00D-01 BMatC= 3.87D-08 BMatP= 1.42D-07
 IDIUse=1 WtCom= 1.00D+00 WtEn= 0.00D+00
 Coeff-Com:  0.213D-04 0.925D-04 0.194D-03-0.877D-03-0.734D-02-0.408D-01
 Coeff-Com: -0.283D-01 0.395D+00 0.682D+00
 Coeff:      0.213D-04 0.925D-04 0.194D-03-0.877D-03-0.734D-02-0.408D-01
 Coeff:     -0.283D-01 0.395D+00 0.682D+00
 Gap=     0.361 Goal=   None    Shift=    0.000
 RMSDP=5.16D-07 MaxDP=3.65D-05 DE=-1.82D-07 OVMax= 5.58D-05

 Cycle  10  Pass 1  IDiag  1:
 RMSU=  3.03D-07    CP:  1.00D+00  6.76D-01  5.78D-01  7.09D-01  7.48D-01
                    CP:  1.03D+00  8.93D-01  1.24D+00  9.28D-01
 E= -1827.69055557040     Delta-E=       -0.000000035082 Rises=F Damp=F
 DIIS: error= 1.08D-06 at cycle  10 NSaved=  10.
 NSaved=10 IEnMin=10 EnMin= -1827.69055557040     IErMin=10 ErrMin= 1.08D-06
 ErrMax= 1.08D-06  0.00D+00 EMaxC= 1.00D-01 BMatC= 2.47D-09 BMatP= 3.87D-08
 IDIUse=1 WtCom= 1.00D+00 WtEn= 0.00D+00
 Coeff-Com:  0.586D-05 0.105D-03 0.319D-03 0.346D-03-0.144D-02-0.146D-01
 Coeff-Com: -0.220D-01 0.370D-01 0.223D+00 0.777D+00
 Coeff:      0.586D-05 0.105D-03 0.319D-03 0.346D-03-0.144D-02-0.146D-01
 Coeff:     -0.220D-01 0.370D-01 0.223D+00 0.777D+00
 Gap=     0.361 Goal=   None    Shift=    0.000
 RMSDP=1.59D-07 MaxDP=1.02D-05 DE=-3.51D-08 OVMax= 1.78D-05

 Cycle  11  Pass 1  IDiag  1:
 RMSU=  9.19D-08    CP:  1.00D+00  6.76D-01  5.78D-01  7.09D-01  7.48D-01
                    CP:  1.03D+00  8.98D-01  1.26D+00  1.01D+00  9.78D-01
 E= -1827.69055557274     Delta-E=       -0.000000002336 Rises=F Damp=F
 DIIS: error= 3.88D-07 at cycle  11 NSaved=  11.
 NSaved=11 IEnMin=11 EnMin= -1827.69055557274     IErMin=11 ErrMin= 3.88D-07
 ErrMax= 3.88D-07  0.00D+00 EMaxC= 1.00D-01 BMatC= 2.63D-10 BMatP= 2.47D-09
 IDIUse=1 WtCom= 1.00D+00 WtEn= 0.00D+00
 Coeff-Com:  0.994D-06 0.325D-04 0.111D-03 0.177D-03 0.594D-04-0.255D-02
 Coeff-Com: -0.610D-02-0.139D-01 0.305D-01 0.269D+00 0.723D+00
 Coeff:      0.994D-06 0.325D-04 0.111D-03 0.177D-03 0.594D-04-0.255D-02
 Coeff:     -0.610D-02-0.139D-01 0.305D-01 0.269D+00 0.723D+00
 Gap=     0.361 Goal=   None    Shift=    0.000
 RMSDP=4.65D-08 MaxDP=4.02D-06 DE=-2.34D-09 OVMax= 3.86D-06

 Cycle  12  Pass 1  IDiag  1:
 RMSU=  2.86D-08    CP:  1.00D+00  6.76D-01  5.78D-01  7.09D-01  7.48D-01
                    CP:  1.03D+00  8.98D-01  1.27D+00  1.03D+00  1.05D+00
                    CP:  9.47D-01
 E= -1827.69055557291     Delta-E=       -0.000000000173 Rises=F Damp=F
 DIIS: error= 2.77D-07 at cycle  12 NSaved=  12.
 NSaved=12 IEnMin=12 EnMin= -1827.69055557291     IErMin=12 ErrMin= 2.77D-07
 ErrMax= 2.77D-07  0.00D+00 EMaxC= 1.00D-01 BMatC= 5.32D-11 BMatP= 2.63D-10
 IDIUse=1 WtCom= 1.00D+00 WtEn= 0.00D+00
 Coeff-Com: -0.418D-06 0.402D-06 0.116D-04 0.391D-04 0.300D-03 0.101D-02
 Coeff-Com:  0.461D-03-0.120D-01-0.193D-01 0.897D-02 0.337D+00 0.684D+00
 Coeff:     -0.418D-06 0.402D-06 0.116D-04 0.391D-04 0.300D-03 0.101D-02
 Coeff:      0.461D-03-0.120D-01-0.193D-01 0.897D-02 0.337D+00 0.684D+00
 Gap=     0.361 Goal=   None    Shift=    0.000
 RMSDP=1.91D-08 MaxDP=1.54D-06 DE=-1.73D-10 OVMax= 1.65D-06

 Cycle  13  Pass 1  IDiag  1:
 RMSU=  1.08D-08    CP:  1.00D+00  6.76D-01  5.78D-01  7.09D-01  7.48D-01
                    CP:  1.03D+00  8.99D-01  1.27D+00  1.04D+00  1.07D+00
                    CP:  1.04D+00  8.16D-01
 E= -1827.69055557298     Delta-E=       -0.000000000072 Rises=F Damp=F
 DIIS: error= 1.05D-07 at cycle  13 NSaved=  13.
 NSaved=13 IEnMin=13 EnMin= -1827.69055557298     IErMin=13 ErrMin= 1.05D-07
 ErrMax= 1.05D-07  0.00D+00 EMaxC= 1.00D-01 BMatC= 6.30D-12 BMatP= 5.32D-11
 IDIUse=1 WtCom= 1.00D+00 WtEn= 0.00D+00
 Coeff-Com: -0.287D-06-0.277D-05-0.349D-05 0.227D-05 0.143D-03 0.703D-03
 Coeff-Com:  0.778D-03-0.444D-02-0.121D-01-0.222D-01 0.857D-01 0.324D+00
 Coeff-Com:  0.628D+00
 Coeff:     -0.287D-06-0.277D-05-0.349D-05 0.227D-05 0.143D-03 0.703D-03
 Coeff:      0.778D-03-0.444D-02-0.121D-01-0.222D-01 0.857D-01 0.324D+00
 Coeff:      0.628D+00
 Gap=     0.361 Goal=   None    Shift=    0.000
 RMSDP=6.04D-09 MaxDP=4.45D-07 DE=-7.19D-11 OVMax= 5.05D-07

 Error on total polarization charges =  0.00512
 SCF Done:  E(RCAM-B3LYP) =  -1827.69055557     A.U. after   13 cycles
            NFock= 13  Conv=0.60D-08     -V/T= 2.0078
 KE= 1.813630588917D+03 PE=-1.107712542280D+04 EE= 4.050175384904D+03
 Leave Link  502 at Sun Mar  3 17:37:48 2024, MaxMem=  5368709120 cpu:       785.3
 (Enter /home/k0335/k033513/app/g09/l601.exe)
 Copying SCF densities to generalized density rwf, IOpCl= 0 IROHF=0.

 **********************************************************************

            Population analysis using the SCF density.

 **********************************************************************

 Alpha  occ. eigenvalues --  -24.83161 -24.83084 -24.83004 -24.82999 -24.82930
 Alpha  occ. eigenvalues --  -24.82761 -24.82373 -24.82327 -24.82293 -19.32716
 Alpha  occ. eigenvalues --  -19.23037 -19.22813 -19.22623 -14.51868 -14.49357
 Alpha  occ. eigenvalues --  -14.49281 -10.59149 -10.55097 -10.52630 -10.48766
 Alpha  occ. eigenvalues --  -10.44859 -10.44730 -10.43748 -10.31068 -10.30872
 Alpha  occ. eigenvalues --  -10.26257 -10.25734 -10.24820  -1.42882  -1.41456
 Alpha  occ. eigenvalues --   -1.38688  -1.35050  -1.33359  -1.32940  -1.32327
 Alpha  occ. eigenvalues --   -1.31873  -1.31067  -1.21543  -1.20061  -1.16460
 Alpha  occ. eigenvalues --   -1.16221  -1.08519  -1.06217  -1.04738  -0.92661
 Alpha  occ. eigenvalues --   -0.88443  -0.86179  -0.83932  -0.82051  -0.80528
 Alpha  occ. eigenvalues --   -0.77921  -0.77282  -0.74837  -0.73510  -0.72980
 Alpha  occ. eigenvalues --   -0.71761  -0.71271  -0.70446  -0.69090  -0.68467
 Alpha  occ. eigenvalues --   -0.68032  -0.67490  -0.66386  -0.65252  -0.63442
 Alpha  occ. eigenvalues --   -0.61306  -0.59446  -0.58791  -0.57500  -0.56864
 Alpha  occ. eigenvalues --   -0.56699  -0.55855  -0.55451  -0.55364  -0.55061
 Alpha  occ. eigenvalues --   -0.54586  -0.54255  -0.53791  -0.53402  -0.53092
 Alpha  occ. eigenvalues --   -0.53068  -0.52543  -0.51739  -0.51657  -0.51281
 Alpha  occ. eigenvalues --   -0.50817  -0.50473  -0.50168  -0.49951  -0.49688
 Alpha  occ. eigenvalues --   -0.49277  -0.49036  -0.48512  -0.48051  -0.47625
 Alpha  occ. eigenvalues --   -0.46783  -0.46248  -0.44819  -0.43203  -0.42466
 Alpha  occ. eigenvalues --   -0.41867  -0.41269  -0.40885  -0.38902  -0.38359
 Alpha  occ. eigenvalues --   -0.37476  -0.35820  -0.35069  -0.34495
 Alpha virt. eigenvalues --    0.01600   0.02602   0.05605   0.09371   0.12571
 Alpha virt. eigenvalues --    0.14204   0.14522   0.15832   0.17045   0.17642
 Alpha virt. eigenvalues --    0.18142   0.19069   0.19504   0.19819   0.20042
 Alpha virt. eigenvalues --    0.20752   0.21401   0.21818   0.22453   0.22598
 Alpha virt. eigenvalues --    0.23046   0.23396   0.23711   0.24332   0.25200
 Alpha virt. eigenvalues --    0.25504   0.25975   0.26189   0.27119   0.27527
 Alpha virt. eigenvalues --    0.28063   0.28172   0.29350   0.30443   0.30502
 Alpha virt. eigenvalues --    0.31408   0.33882   0.36835   0.38046   0.39461
 Alpha virt. eigenvalues --    0.40443   0.41241   0.46823   0.47773   0.49367
 Alpha virt. eigenvalues --    0.51194   0.51477   0.52979   0.53854   0.55071
 Alpha virt. eigenvalues --    0.55163   0.56292   0.56774   0.56966   0.57290
 Alpha virt. eigenvalues --    0.57479   0.58671   0.58816   0.60481   0.61002
 Alpha virt. eigenvalues --    0.61685   0.62596   0.63798   0.65167   0.65713
 Alpha virt. eigenvalues --    0.66817   0.67819   0.68241   0.70165   0.70556
 Alpha virt. eigenvalues --    0.71797   0.74311   0.74633   0.77205   0.78173
 Alpha virt. eigenvalues --    0.79207   0.81831   0.82105   0.82870   0.83811
 Alpha virt. eigenvalues --    0.85111   0.85219   0.86192   0.88165   0.88255
 Alpha virt. eigenvalues --    0.89476   0.91183   0.92165   0.92432   0.92787
 Alpha virt. eigenvalues --    0.93250   0.94248   0.94878   0.95612   0.96100
 Alpha virt. eigenvalues --    0.96754   0.97042   0.97684   0.99234   0.99600
 Alpha virt. eigenvalues --    1.00730   1.01809   1.02138   1.02789   1.04342
 Alpha virt. eigenvalues --    1.05684   1.06600   1.07315   1.08724   1.09454
 Alpha virt. eigenvalues --    1.09661   1.11695   1.12163   1.13415   1.14573
 Alpha virt. eigenvalues --    1.15318   1.16672   1.17282   1.18283   1.18992
 Alpha virt. eigenvalues --    1.19855   1.20882   1.21037   1.22025   1.23039
 Alpha virt. eigenvalues --    1.24855   1.25501   1.26867   1.28361   1.29423
 Alpha virt. eigenvalues --    1.30303   1.31024   1.32501   1.33435   1.33522
 Alpha virt. eigenvalues --    1.34116   1.35866   1.36493   1.37763   1.39377
 Alpha virt. eigenvalues --    1.40069   1.40434   1.40998   1.41324   1.42209
 Alpha virt. eigenvalues --    1.43086   1.43663   1.44298   1.45997   1.46952
 Alpha virt. eigenvalues --    1.50457   1.50955   1.52075   1.52372   1.52866
 Alpha virt. eigenvalues --    1.53935   1.54697   1.55844   1.56449   1.56819
 Alpha virt. eigenvalues --    1.57879   1.59660   1.60112   1.61467   1.62088
 Alpha virt. eigenvalues --    1.63657   1.64980   1.66156   1.66886   1.68219
 Alpha virt. eigenvalues --    1.69686   1.71907   1.72848   1.73037   1.73902
 Alpha virt. eigenvalues --    1.74654   1.75456   1.76176   1.76371   1.77653
 Alpha virt. eigenvalues --    1.79600   1.79958   1.81295   1.82433   1.82695
 Alpha virt. eigenvalues --    1.83615   1.84823   1.85468   1.85778   1.86662
 Alpha virt. eigenvalues --    1.87533   1.88354   1.88680   1.89666   1.90282
 Alpha virt. eigenvalues --    1.90463   1.90814   1.91369   1.92529   1.93193
 Alpha virt. eigenvalues --    1.93553   1.94019   1.94663   1.94738   1.95601
 Alpha virt. eigenvalues --    1.95981   1.96859   1.97555   1.98979   1.99347
 Alpha virt. eigenvalues --    1.99956   2.01265   2.01561   2.01778   2.02467
 Alpha virt. eigenvalues --    2.03075   2.03566   2.04605   2.05118   2.05536
 Alpha virt. eigenvalues --    2.05991   2.06704   2.07751   2.09172   2.09352
 Alpha virt. eigenvalues --    2.09730   2.10486   2.12315   2.12465   2.12781
 Alpha virt. eigenvalues --    2.13648   2.13893   2.13989   2.14378   2.16379
 Alpha virt. eigenvalues --    2.16595   2.17327   2.18423   2.18902   2.19921
 Alpha virt. eigenvalues --    2.20374   2.21085   2.21541   2.22020   2.23420
 Alpha virt. eigenvalues --    2.24366   2.25853   2.26741   2.27445   2.28779
 Alpha virt. eigenvalues --    2.29756   2.30241   2.30846   2.31313   2.32843
 Alpha virt. eigenvalues --    2.34875   2.36282   2.37202   2.38393   2.39180
 Alpha virt. eigenvalues --    2.41657   2.42534   2.43494   2.43775   2.44004
 Alpha virt. eigenvalues --    2.45225   2.45849   2.46906   2.47866   2.49856
 Alpha virt. eigenvalues --    2.51714   2.51856   2.52641   2.54868   2.57209
 Alpha virt. eigenvalues --    2.58892   2.59456   2.60863   2.62068   2.62838
 Alpha virt. eigenvalues --    2.64498   2.65861   2.68322   2.69100   2.70880
 Alpha virt. eigenvalues --    2.72236   2.73366   2.73816   2.74406   2.77175
 Alpha virt. eigenvalues --    2.77950   2.78051   2.79003   2.80221   2.81544
 Alpha virt. eigenvalues --    2.83046   2.84246   2.84658   2.87121   2.88534
 Alpha virt. eigenvalues --    2.89624   2.90705   2.91717   2.92575   2.92765
 Alpha virt. eigenvalues --    2.94646   2.95927   2.96565   2.98301   2.98914
 Alpha virt. eigenvalues --    2.99417   2.99644   3.00526   3.01472   3.03618
 Alpha virt. eigenvalues --    3.04968   3.06364   3.07618   3.09172   3.10233
 Alpha virt. eigenvalues --    3.14364   3.15603   3.16921   3.18008   3.20853
 Alpha virt. eigenvalues --    3.21475   3.26749   3.27073   3.30733   3.33899
 Alpha virt. eigenvalues --    3.35649   3.37124   3.37686   3.38721   3.44061
 Alpha virt. eigenvalues --    3.46305   3.47571   3.51744   3.53089   3.57573
 Alpha virt. eigenvalues --    3.58651   3.61687   3.64298   4.12502   4.16244
 Alpha virt. eigenvalues --    4.16509   4.25745   4.30637   4.31061   4.32433
 Alpha virt. eigenvalues --    4.38577   4.41998   4.45314   4.47901   4.51719
 Alpha virt. eigenvalues --    4.59854   4.66404   4.69953   4.71978   4.74308
 Alpha virt. eigenvalues --    4.78671   4.80384   4.82976   5.03026   5.08044
 Alpha virt. eigenvalues --    5.23082   5.41030   5.56620   5.76631   6.34449
 Alpha virt. eigenvalues --    6.65880
          Condensed to atoms (all electrons):
               1          2          3          4          5          6
     1  C    4.915206   0.367673  -0.049511  -0.004637   0.000242   0.000042
     2  C    0.367673   4.897087   0.372636  -0.049258  -0.003821  -0.004224
     3  C   -0.049511   0.372636   4.840250   0.244753  -0.023725   0.002274
     4  N   -0.004637  -0.049258   0.244753   7.294420   0.262959  -0.090016
     5  C    0.000242  -0.003821  -0.023725   0.262959   4.141592   0.589812
     6  O    0.000042  -0.004224   0.002274  -0.090016   0.589812   8.092768
     7  N   -0.000002  -0.000234   0.003299  -0.096729   0.261997  -0.089921
     8  C    0.000000   0.000005  -0.000079   0.003272  -0.023719   0.001790
     9  C    0.000000  -0.000001   0.000004  -0.000282  -0.003043  -0.002964
    10  C    0.000010   0.000027   0.000227  -0.003205  -0.021885   0.000346
    11  O    0.000000   0.000000   0.000003   0.000112   0.000292  -0.000025
    12  N   -0.000277  -0.000162   0.002907  -0.096027   0.001039   0.000000
    13  C   -0.000008   0.000002  -0.000033   0.002305   0.000228   0.000001
    14  F    0.000000   0.000000   0.000000  -0.000025  -0.000001   0.000000
    15  F   -0.000014   0.000000   0.000003   0.000029   0.000000   0.000000
    16  C    0.000000   0.000000   0.000000  -0.000285   0.000054   0.000000
    17  F    0.000000   0.000000   0.000000   0.000000   0.000008   0.000000
    18  O    0.000000   0.000000   0.000003  -0.000131   0.000009   0.000000
    19  C    0.000000   0.000000   0.000000   0.000022   0.000000   0.000000
    20  F    0.000000   0.000000   0.000000  -0.000003   0.000000   0.000000
    21  F    0.000000   0.000000   0.000000   0.000000   0.000000   0.000000
    22  F    0.000000   0.000000   0.000000   0.000000   0.000000   0.000000
    23  C    0.000000   0.000000   0.000000   0.000000   0.000000   0.000000
    24  F    0.000000   0.000000   0.000000   0.000000   0.000000   0.000000
    25  F    0.000000   0.000000   0.000000   0.000000   0.000000   0.000000
    26  F    0.000000   0.000000   0.000000   0.000000   0.000000   0.000000
    27  C    0.003870  -0.002736  -0.024747   0.261069  -0.022405   0.000485
    28  O    0.001226  -0.001337  -0.002868  -0.087498   0.000253  -0.000025
    29  H    0.391727  -0.036104  -0.004395  -0.000449  -0.000025  -0.000003
    30  H    0.386805  -0.029463   0.005024  -0.000096  -0.000011   0.000000
    31  H    0.390229  -0.034773  -0.007687   0.003530   0.000418   0.000017
    32  H   -0.036695   0.388947  -0.034522   0.004231  -0.000015   0.000034
    33  H   -0.041548   0.392109  -0.033957  -0.006941   0.003791   0.005698
    34  H   -0.006064  -0.036139   0.388614  -0.034520   0.004003   0.000475
    35  H    0.004758  -0.035953   0.388149  -0.037019  -0.003032   0.006926
    36  H    0.000000   0.000000  -0.000003   0.000423  -0.003245   0.007950
    37  H    0.000000   0.000000   0.000001  -0.000071   0.004212   0.000516
    38  H    0.000000   0.000000   0.000000   0.000002  -0.000015  -0.000006
    39  H    0.000000   0.000001   0.000001  -0.000021   0.003689   0.003782
    40  H    0.000000   0.000000   0.000000   0.000001  -0.000060   0.000029
               7          8          9         10         11         12
     1  C   -0.000002   0.000000   0.000000   0.000010   0.000000  -0.000277
     2  C   -0.000234   0.000005  -0.000001   0.000027   0.000000  -0.000162
     3  C    0.003299  -0.000079   0.000004   0.000227   0.000003   0.002907
     4  N   -0.096729   0.003272  -0.000282  -0.003205   0.000112  -0.096027
     5  C    0.261997  -0.023719  -0.003043  -0.021885   0.000292   0.001039
     6  O   -0.089921   0.001790  -0.002964   0.000346  -0.000025   0.000000
     7  N    7.289350   0.251233  -0.054437   0.268265  -0.090235  -0.096494
     8  C    0.251233   4.791187   0.370969  -0.024125  -0.000010   0.003157
     9  C   -0.054437   0.370969   4.933788  -0.002360  -0.002581  -0.000317
    10  C    0.268265  -0.024125  -0.002360   4.174431   0.578213   0.211243
    11  O   -0.090235  -0.000010  -0.002581   0.578213   8.105978  -0.090101
    12  N   -0.096494   0.003157  -0.000317   0.211243  -0.090101   7.554767
    13  C    0.001973  -0.000044   0.000002  -0.013567   0.016132   0.170640
    14  F    0.000040   0.000005   0.000000   0.006064  -0.010879  -0.038106
    15  F   -0.000024   0.000000   0.000000   0.000651   0.000010  -0.040008
    16  C   -0.000232   0.000001   0.000000  -0.000853  -0.002555  -0.063955
    17  F   -0.000075   0.000006   0.000000   0.010265  -0.004008  -0.001341
    18  O    0.000002   0.000000   0.000000  -0.000282   0.000003   0.000580
    19  C    0.000000   0.000000   0.000000   0.000017   0.000001   0.000049
    20  F    0.000000   0.000000   0.000000   0.000001   0.000000  -0.000138
    21  F    0.000000   0.000000   0.000000   0.000000   0.000000  -0.000001
    22  F    0.000000   0.000000   0.000000   0.000000   0.000000   0.000004
    23  C   -0.000001   0.000000   0.000000   0.000246  -0.000071   0.003437
    24  F    0.000000   0.000000   0.000000   0.000000   0.000000  -0.000013
    25  F    0.000000   0.000000   0.000000   0.000001   0.000000   0.000023
    26  F    0.000000   0.000000   0.000000  -0.000013  -0.000001  -0.000017
    27  C   -0.001898   0.000310   0.000062  -0.016094  -0.000145   0.206001
    28  O    0.000121   0.000003   0.000000  -0.000207  -0.000030  -0.094395
    29  H    0.000000   0.000000   0.000000   0.000000   0.000000   0.000013
    30  H    0.000000   0.000000   0.000000   0.000000   0.000000   0.000002
    31  H   -0.000040   0.000000   0.000000   0.000029   0.000000   0.000036
    32  H    0.000001   0.000000   0.000000   0.000000   0.000000   0.000002
    33  H   -0.000002   0.000003   0.000001   0.000000   0.000000   0.000003
    34  H   -0.000084   0.000001   0.000000  -0.000026   0.000000   0.000582
    35  H    0.000370  -0.000006   0.000001  -0.000030   0.000000  -0.000096
    36  H   -0.034175   0.391819  -0.038370   0.004196   0.000540  -0.000075
    37  H   -0.034166   0.391231  -0.038451  -0.004450   0.009314   0.000481
    38  H    0.004126  -0.028238   0.385556  -0.000049  -0.000019   0.000003
    39  H   -0.005805  -0.032254   0.389406  -0.000165   0.000020  -0.000001
    40  H   -0.006082  -0.032185   0.389654   0.004181   0.002950  -0.000126
              13         14         15         16         17         18
     1  C   -0.000008   0.000000  -0.000014   0.000000   0.000000   0.000000
     2  C    0.000002   0.000000   0.000000   0.000000   0.000000   0.000000
     3  C   -0.000033   0.000000   0.000003   0.000000   0.000000   0.000003
     4  N    0.002305  -0.000025   0.000029  -0.000285   0.000000  -0.000131
     5  C    0.000228  -0.000001   0.000000   0.000054   0.000008   0.000009
     6  O    0.000001   0.000000   0.000000   0.000000   0.000000   0.000000
     7  N    0.001973   0.000040  -0.000024  -0.000232  -0.000075   0.000002
     8  C   -0.000044   0.000005   0.000000   0.000001   0.000006   0.000000
     9  C    0.000002   0.000000   0.000000   0.000000   0.000000   0.000000
    10  C   -0.013567   0.006064   0.000651  -0.000853   0.010265  -0.000282
    11  O    0.016132  -0.010879   0.000010  -0.002555  -0.004008   0.000003
    12  N    0.170640  -0.038106  -0.040008  -0.063955  -0.001341   0.000580
    13  C    4.434817   0.264446   0.269866   0.163960  -0.025513  -0.037371
    14  F    0.264446   9.103175  -0.043388  -0.025502  -0.000169   0.000596
    15  F    0.269866  -0.043388   9.101588  -0.032258   0.000300   0.000841
    16  C    0.163960  -0.025502  -0.032258   5.002455   0.243031   0.161850
    17  F   -0.025513  -0.000169   0.000300   0.243031   9.100687  -0.045762
    18  O   -0.037371   0.000596   0.000841   0.161850  -0.045762   8.359069
    19  C   -0.003763   0.000062   0.001378  -0.002979   0.000157   0.225275
    20  F    0.001527   0.000000  -0.004824   0.009087  -0.000002  -0.044729
    21  F   -0.000029   0.000000  -0.000001  -0.006398  -0.000007  -0.046453
    22  F   -0.000065   0.000000  -0.000002   0.000832  -0.000002  -0.037360
    23  C   -0.038339   0.005435   0.002702   0.214898  -0.010518  -0.024333
    24  F    0.001722   0.000000  -0.000001  -0.023743  -0.000792  -0.001049
    25  F    0.009432  -0.000666  -0.000171  -0.043446   0.000306  -0.000820
    26  F   -0.000028  -0.002726  -0.000160  -0.025657  -0.000800   0.000518
    27  C   -0.004128   0.000966   0.006321  -0.005184  -0.000430   0.004752
    28  O    0.020529   0.000017  -0.009649  -0.005091   0.000010  -0.005945
    29  H    0.000000   0.000000   0.000000   0.000000   0.000000   0.000000
    30  H    0.000000   0.000000   0.000000   0.000000   0.000000   0.000000
    31  H    0.000039   0.000000   0.000056   0.000001   0.000000   0.000000
    32  H    0.000000   0.000000   0.000000   0.000000   0.000000   0.000000
    33  H    0.000000   0.000000   0.000000   0.000000   0.000000   0.000000
    34  H    0.000006   0.000000   0.000002   0.000001   0.000000  -0.000002
    35  H    0.000002   0.000000   0.000000   0.000000   0.000000   0.000000
    36  H    0.000002   0.000000   0.000000   0.000000   0.000000   0.000000
    37  H    0.000009   0.000002   0.000000   0.000000  -0.000004   0.000000
    38  H    0.000000   0.000000   0.000000   0.000000   0.000000   0.000000
    39  H    0.000000   0.000000   0.000000   0.000000   0.000000   0.000000
    40  H    0.000000  -0.000001   0.000000   0.000000   0.000000   0.000000
              19         20         21         22         23         24
     1  C    0.000000   0.000000   0.000000   0.000000   0.000000   0.000000
     2  C    0.000000   0.000000   0.000000   0.000000   0.000000   0.000000
     3  C    0.000000   0.000000   0.000000   0.000000   0.000000   0.000000
     4  N    0.000022  -0.000003   0.000000   0.000000   0.000000   0.000000
     5  C    0.000000   0.000000   0.000000   0.000000   0.000000   0.000000
     6  O    0.000000   0.000000   0.000000   0.000000   0.000000   0.000000
     7  N    0.000000   0.000000   0.000000   0.000000  -0.000001   0.000000
     8  C    0.000000   0.000000   0.000000   0.000000   0.000000   0.000000
     9  C    0.000000   0.000000   0.000000   0.000000   0.000000   0.000000
    10  C    0.000017   0.000001   0.000000   0.000000   0.000246   0.000000
    11  O    0.000001   0.000000   0.000000   0.000000  -0.000071   0.000000
    12  N    0.000049  -0.000138  -0.000001   0.000004   0.003437  -0.000013
    13  C   -0.003763   0.001527  -0.000029  -0.000065  -0.038339   0.001722
    14  F    0.000062   0.000000   0.000000   0.000000   0.005435   0.000000
    15  F    0.001378  -0.004824  -0.000001  -0.000002   0.002702  -0.000001
    16  C   -0.002979   0.009087  -0.006398   0.000832   0.214898  -0.023743
    17  F    0.000157  -0.000002  -0.000007  -0.000002  -0.010518  -0.000792
    18  O    0.225275  -0.044729  -0.046453  -0.037360  -0.024333  -0.001049
    19  C    3.828244   0.287609   0.301806   0.332195  -0.001589   0.000864
    20  F    0.287609   9.069560  -0.034598  -0.034555  -0.004031   0.000002
    21  F    0.301806  -0.034598   9.061334  -0.037244   0.015891  -0.002863
    22  F    0.332195  -0.034555  -0.037244   9.021660  -0.000068   0.000000
    23  C   -0.001589  -0.004031   0.015891  -0.000068   4.209241   0.277415
    24  F    0.000864   0.000002  -0.002863   0.000000   0.277415   9.086666
    25  F    0.010555  -0.003505  -0.002359  -0.000001   0.255924  -0.037667
    26  F    0.000036   0.000000   0.000001   0.000000   0.293165  -0.039925
    27  C    0.000240  -0.000317   0.000007   0.000183   0.000082   0.000000
    28  O    0.007856  -0.000464  -0.000002  -0.000198   0.000006   0.000000
    29  H    0.000000   0.000000   0.000000   0.000000   0.000000   0.000000
    30  H    0.000000   0.000000   0.000000   0.000000   0.000000   0.000000
    31  H    0.000000   0.000000   0.000000   0.000000   0.000000   0.000000
    32  H    0.000000   0.000000   0.000000   0.000000   0.000000   0.000000
    33  H    0.000000   0.000000   0.000000   0.000000   0.000000   0.000000
    34  H    0.000004   0.000000   0.000000   0.000001   0.000000   0.000000
    35  H    0.000000   0.000000   0.000000   0.000000   0.000000   0.000000
    36  H    0.000000   0.000000   0.000000   0.000000   0.000000   0.000000
    37  H    0.000000   0.000000   0.000000   0.000000   0.000000   0.000000
    38  H    0.000000   0.000000   0.000000   0.000000   0.000000   0.000000
    39  H    0.000000   0.000000   0.000000   0.000000   0.000000   0.000000
    40  H    0.000000   0.000000   0.000000   0.000000   0.000000   0.000000
              25         26         27         28         29         30
     1  C    0.000000   0.000000   0.003870   0.001226   0.391727   0.386805
     2  C    0.000000   0.000000  -0.002736  -0.001337  -0.036104  -0.029463
     3  C    0.000000   0.000000  -0.024747  -0.002868  -0.004395   0.005024
     4  N    0.000000   0.000000   0.261069  -0.087498  -0.000449  -0.000096
     5  C    0.000000   0.000000  -0.022405   0.000253  -0.000025  -0.000011
     6  O    0.000000   0.000000   0.000485  -0.000025  -0.000003   0.000000
     7  N    0.000000   0.000000  -0.001898   0.000121   0.000000   0.000000
     8  C    0.000000   0.000000   0.000310   0.000003   0.000000   0.000000
     9  C    0.000000   0.000000   0.000062   0.000000   0.000000   0.000000
    10  C    0.000001  -0.000013  -0.016094  -0.000207   0.000000   0.000000
    11  O    0.000000  -0.000001  -0.000145  -0.000030   0.000000   0.000000
    12  N    0.000023  -0.000017   0.206001  -0.094395   0.000013   0.000002
    13  C    0.009432  -0.000028  -0.004128   0.020529   0.000000   0.000000
    14  F   -0.000666  -0.002726   0.000966   0.000017   0.000000   0.000000
    15  F   -0.000171  -0.000160   0.006321  -0.009649   0.000000   0.000000
    16  C   -0.043446  -0.025657  -0.005184  -0.005091   0.000000   0.000000
    17  F    0.000306  -0.000800  -0.000430   0.000010   0.000000   0.000000
    18  O   -0.000820   0.000518   0.004752  -0.005945   0.000000   0.000000
    19  C    0.010555   0.000036   0.000240   0.007856   0.000000   0.000000
    20  F   -0.003505   0.000000  -0.000317  -0.000464   0.000000   0.000000
    21  F   -0.002359   0.000001   0.000007  -0.000002   0.000000   0.000000
    22  F   -0.000001   0.000000   0.000183  -0.000198   0.000000   0.000000
    23  C    0.255924   0.293165   0.000082   0.000006   0.000000   0.000000
    24  F   -0.037667  -0.039925   0.000000   0.000000   0.000000   0.000000
    25  F    9.098079  -0.038394  -0.000002   0.000000   0.000000   0.000000
    26  F   -0.038394   9.058542   0.000001   0.000000   0.000000   0.000000
    27  C   -0.000002   0.000001   4.187481   0.567798   0.000471  -0.000043
    28  O    0.000000   0.000000   0.567798   8.118040   0.001012   0.000070
    29  H    0.000000   0.000000   0.000471   0.001012   0.586268  -0.028793
    30  H    0.000000   0.000000  -0.000043   0.000070  -0.028793   0.592459
    31  H    0.000000   0.000000   0.002453  -0.001217  -0.031458  -0.029824
    32  H    0.000000   0.000000   0.000022  -0.000035  -0.003917  -0.004953
    33  H    0.000000   0.000000  -0.000303  -0.000035   0.004902  -0.002815
    34  H    0.000000   0.000000  -0.003232   0.009855   0.004091   0.000029
    35  H    0.000000   0.000000   0.003604   0.000519   0.000027  -0.000156
    36  H    0.000000   0.000000  -0.000042   0.000000   0.000000   0.000000
    37  H    0.000000   0.000000  -0.000043   0.000000   0.000000   0.000000
    38  H    0.000000   0.000000  -0.000001   0.000000   0.000000   0.000000
    39  H    0.000000   0.000000  -0.000001   0.000000   0.000000   0.000000
    40  H    0.000000   0.000000  -0.000001   0.000000   0.000000   0.000000
              31         32         33         34         35         36
     1  C    0.390229  -0.036695  -0.041548  -0.006064   0.004758   0.000000
     2  C   -0.034773   0.388947   0.392109  -0.036139  -0.035953   0.000000
     3  C   -0.007687  -0.034522  -0.033957   0.388614   0.388149  -0.000003
     4  N    0.003530   0.004231  -0.006941  -0.034520  -0.037019   0.000423
     5  C    0.000418  -0.000015   0.003791   0.004003  -0.003032  -0.003245
     6  O    0.000017   0.000034   0.005698   0.000475   0.006926   0.007950
     7  N   -0.000040   0.000001  -0.000002  -0.000084   0.000370  -0.034175
     8  C    0.000000   0.000000   0.000003   0.000001  -0.000006   0.391819
     9  C    0.000000   0.000000   0.000001   0.000000   0.000001  -0.038370
    10  C    0.000029   0.000000   0.000000  -0.000026  -0.000030   0.004196
    11  O    0.000000   0.000000   0.000000   0.000000   0.000000   0.000540
    12  N    0.000036   0.000002   0.000003   0.000582  -0.000096  -0.000075
    13  C    0.000039   0.000000   0.000000   0.000006   0.000002   0.000002
    14  F    0.000000   0.000000   0.000000   0.000000   0.000000   0.000000
    15  F    0.000056   0.000000   0.000000   0.000002   0.000000   0.000000
    16  C    0.000001   0.000000   0.000000   0.000001   0.000000   0.000000
    17  F    0.000000   0.000000   0.000000   0.000000   0.000000   0.000000
    18  O    0.000000   0.000000   0.000000  -0.000002   0.000000   0.000000
    19  C    0.000000   0.000000   0.000000   0.000004   0.000000   0.000000
    20  F    0.000000   0.000000   0.000000   0.000000   0.000000   0.000000
    21  F    0.000000   0.000000   0.000000   0.000000   0.000000   0.000000
    22  F    0.000000   0.000000   0.000000   0.000001   0.000000   0.000000
    23  C    0.000000   0.000000   0.000000   0.000000   0.000000   0.000000
    24  F    0.000000   0.000000   0.000000   0.000000   0.000000   0.000000
    25  F    0.000000   0.000000   0.000000   0.000000   0.000000   0.000000
    26  F    0.000000   0.000000   0.000000   0.000000   0.000000   0.000000
    27  C    0.002453   0.000022  -0.000303  -0.003232   0.003604  -0.000042
    28  O   -0.001217  -0.000035  -0.000035   0.009855   0.000519   0.000000
    29  H   -0.031458  -0.003917   0.004902   0.004091   0.000027   0.000000
    30  H   -0.029824  -0.004953  -0.002815   0.000029  -0.000156   0.000000
    31  H    0.603114   0.005213  -0.004566  -0.000076  -0.000011   0.000000
    32  H    0.005213   0.597870  -0.029232  -0.001373  -0.002337   0.000000
    33  H   -0.004566  -0.029232   0.591900   0.004530  -0.003840   0.000000
    34  H   -0.000076  -0.001373   0.004530   0.541775  -0.027717   0.000000
    35  H   -0.000011  -0.002337  -0.003840  -0.027717   0.560573   0.000002
    36  H    0.000000   0.000000   0.000000   0.000000   0.000002   0.550250
    37  H    0.000000   0.000000   0.000000   0.000000   0.000000  -0.028730
    38  H    0.000000   0.000000   0.000000   0.000000   0.000000  -0.001463
    39  H    0.000000   0.000000   0.000002   0.000000   0.000000  -0.005068
    40  H    0.000000   0.000000   0.000000   0.000000   0.000000   0.004520
              37         38         39         40
     1  C    0.000000   0.000000   0.000000   0.000000
     2  C    0.000000   0.000000   0.000001   0.000000
     3  C    0.000001   0.000000   0.000001   0.000000
     4  N   -0.000071   0.000002  -0.000021   0.000001
     5  C    0.004212  -0.000015   0.003689  -0.000060
     6  O    0.000516  -0.000006   0.003782   0.000029
     7  N   -0.034166   0.004126  -0.005805  -0.006082
     8  C    0.391231  -0.028238  -0.032254  -0.032185
     9  C   -0.038451   0.385556   0.389406   0.389654
    10  C   -0.004450  -0.000049  -0.000165   0.004181
    11  O    0.009314  -0.000019   0.000020   0.002950
    12  N    0.000481   0.000003  -0.000001  -0.000126
    13  C    0.000009   0.000000   0.000000   0.000000
    14  F    0.000002   0.000000   0.000000  -0.000001
    15  F    0.000000   0.000000   0.000000   0.000000
    16  C    0.000000   0.000000   0.000000   0.000000
    17  F   -0.000004   0.000000   0.000000   0.000000
    18  O    0.000000   0.000000   0.000000   0.000000
    19  C    0.000000   0.000000   0.000000   0.000000
    20  F    0.000000   0.000000   0.000000   0.000000
    21  F    0.000000   0.000000   0.000000   0.000000
    22  F    0.000000   0.000000   0.000000   0.000000
    23  C    0.000000   0.000000   0.000000   0.000000
    24  F    0.000000   0.000000   0.000000   0.000000
    25  F    0.000000   0.000000   0.000000   0.000000
    26  F    0.000000   0.000000   0.000000   0.000000
    27  C   -0.000043  -0.000001  -0.000001  -0.000001
    28  O    0.000000   0.000000   0.000000   0.000000
    29  H    0.000000   0.000000   0.000000   0.000000
    30  H    0.000000   0.000000   0.000000   0.000000
    31  H    0.000000   0.000000   0.000000   0.000000
    32  H    0.000000   0.000000   0.000000   0.000000
    33  H    0.000000   0.000000   0.000002   0.000000
    34  H    0.000000   0.000000   0.000000   0.000000
    35  H    0.000000   0.000000   0.000000   0.000000
    36  H   -0.028730  -0.001463  -0.005068   0.004520
    37  H    0.547903  -0.001354   0.004488  -0.005083
    38  H   -0.001354   0.565281  -0.025247  -0.025363
    39  H    0.004488  -0.025247   0.572082  -0.031498
    40  H   -0.005083  -0.025363  -0.031498   0.573195
 Mulliken charges:
               1
     1  C   -0.323032
     2  C   -0.184283
     3  C   -0.066619
     4  N   -0.569917
     5  C    0.830404
     6  O   -0.525761
     7  N   -0.570142
     8  C   -0.064332
     9  C   -0.326637
    10  C    0.828900
    11  O   -0.512905
    12  N   -0.633319
    13  C    0.765251
    14  F   -0.259344
    15  F   -0.253248
    16  C    0.441968
    17  F   -0.265345
    18  O   -0.509257
    19  C    1.011963
    20  F   -0.240619
    21  F   -0.249083
    22  F   -0.245378
    23  C    0.800508
    24  F   -0.260615
    25  F   -0.247288
    26  F   -0.244542
    27  C    0.835574
    28  O   -0.518316
    29  H    0.116633
    30  H    0.111763
    31  H    0.104515
    32  H    0.116759
    33  H    0.120301
    34  H    0.155264
    35  H    0.145266
    36  H    0.151469
    37  H    0.154196
    38  H    0.126789
    39  H    0.126590
    40  H    0.125871
 Sum of Mulliken charges =   0.00000
 Mulliken charges with hydrogens summed into heavy atoms:
               1
     1  C    0.009880
     2  C    0.052777
     3  C    0.233911
     4  N   -0.569917
     5  C    0.830404
     6  O   -0.525761
     7  N   -0.570142
     8  C    0.241333
     9  C    0.052612
    10  C    0.828900
    11  O   -0.512905
    12  N   -0.633319
    13  C    0.765251
    14  F   -0.259344
    15  F   -0.253248
    16  C    0.441968
    17  F   -0.265345
    18  O   -0.509257
    19  C    1.011963
    20  F   -0.240619
    21  F   -0.249083
    22  F   -0.245378
    23  C    0.800508
    24  F   -0.260615
    25  F   -0.247288
    26  F   -0.244542
    27  C    0.835574
    28  O   -0.518316
 Electronic spatial extent (au):  <R**2>=          10321.5257
 Charge=              0.0000 electrons
 Dipole moment (field-independent basis, Debye):
    X=              2.8657    Y=             -0.7142    Z=             -1.3429  Tot=              3.2444
 Quadrupole moment (field-independent basis, Debye-Ang):
   XX=           -160.8651   YY=           -152.9002   ZZ=           -155.6354
   XY=              2.1890   XZ=              4.7519   YZ=             -0.5147
 Traceless Quadrupole moment (field-independent basis, Debye-Ang):
   XX=             -4.3982   YY=              3.5667   ZZ=              0.8315
   XY=              2.1890   XZ=              4.7519   YZ=             -0.5147
 Octapole moment (field-independent basis, Debye-Ang**2):
  XXX=            383.3936  YYY=           -137.8920  ZZZ=            -87.0632  XYY=            141.9569
  XXY=             -7.4513  XXZ=            -24.3564  XZZ=            129.4314  YZZ=            -21.0960
  YYZ=            -32.2357  XYZ=            -22.0385
 Hexadecapole moment (field-independent basis, Debye-Ang**3):
 XXXX=          -6366.7489 YYYY=          -3408.4812 ZZZZ=          -1589.3662 XXXY=            922.4361
 XXXZ=            844.3039 YYYX=            776.5800 YYYZ=            104.8985 ZZZX=            800.6806
 ZZZY=             77.0508 XXYY=          -1657.4879 XXZZ=          -1328.8508 YYZZ=           -883.6353
 XXYZ=            -12.9545 YYXZ=            292.6116 ZZXY=            303.0005
 N-N= 3.385628893405D+03 E-N=-1.107712541735D+04  KE= 1.813630588917D+03
 No NMR shielding tensors so no spin-rotation constants.
 Leave Link  601 at Sun Mar  3 17:37:48 2024, MaxMem=  5368709120 cpu:         2.4
 (Enter /home/k0335/k033513/app/g09/l9999.exe)
 1\1\GINC-C24U18N4\SP\RCAM-B3LYP\6-31G(d,p)\C12H12F9N3O4\K033513\03-Mar
 -2024\0\\#p CAM-B3LYP/6-31G(d,p) SCRF=(PCM,Solvent=Generic,Read) NoSym
 m out=wfn\\Title A1452355790_0\\0,1\C,0,3.08331,2.334358,-0.164718\C,0
 ,3.304324,1.382425,-1.330826\C,0,2.00007,0.901957,-1.977106\N,0,1.2057
 02,0.048483,-1.091813\C,0,1.527275,-1.29205,-1.023409\O,0,2.513624,-1.
 75939,-1.594167\N,0,0.661767,-2.077071,-0.289913\C,0,0.879374,-3.52308
 7,-0.281031\C,0,1.801534,-3.944585,0.854412\C,0,-0.351295,-1.55939,0.4
 91346\O,0,-1.139465,-2.293101,1.086621\N,0,-0.43347,-0.191255,0.555914
 \C,0,-1.514182,0.379905,1.346432\F,0,-1.60077,-0.311052,2.520344\F,0,-
 1.150414,1.624921,1.760303\C,0,-2.896886,0.41389,0.640128\F,0,-3.21624
 7,-0.871425,0.261138\O,0,-2.905039,1.105832,-0.615252\C,0,-3.134442,2.
 492411,-0.529176\F,0,-2.398569,3.053531,0.436574\F,0,-4.43623,2.710869
 ,-0.279716\F,0,-2.826085,3.056787,-1.710442\C,0,-3.934564,0.833764,1.6
 89954\F,0,-5.179431,0.854136,1.150536\F,0,-3.705413,2.064784,2.193071\
 F,0,-3.990818,-0.01772,2.738096\C,0,0.16174,0.605678,-0.385262\O,0,-0.
 226682,1.75269,-0.603625\H,0,2.478402,3.194607,-0.468104\H,0,4.044522,
 2.709054,0.201478\H,0,2.582657,1.834336,0.669749\H,0,3.899003,1.899457
 ,-2.093216\H,0,3.898897,0.528258,-0.987583\H,0,1.410071,1.765135,-2.30
 5105\H,0,2.2454,0.330368,-2.880654\H,0,1.31185,-3.836431,-1.238059\H,0
 ,-0.081715,-4.039874,-0.180964\H,0,1.951218,-5.028478,0.839807\H,0,2.7
 80616,-3.462403,0.76711\H,0,1.380361,-3.670327,1.827126\\Version=ES64L
 -G09RevD.01\HF=-1827.6905556\RMSD=6.038e-09\Dipole=1.1274572,-0.280987
 4,-0.5283486\Quadrupole=-3.2699591,2.6517724,0.6181867,1.6274688,3.532
 8918,-0.382666\PG=C01 [X(C12H12F9N3O4)]\\@

 Writing a WFN file to "A1452355790/A1452355790_0.wfn"


 Other things may change us, but we start and end with family.
 -- Anthony Brandt
 Job cpu time:       0 days  0 hours 13 minutes 30.8 seconds.
 File lengths (MBytes):  RWF=    269 Int=      0 D2E=      0 Chk=     10 Scr=      1
 Normal termination of Gaussian 09 at Sun Mar  3 17:37:48 2024.
