 Entering Gaussian System, Link 0=g09
 Initial command:
 /home/k0335/k033513/app/g09/l1.exe "/home/k0335/k033513/app/g09/scratch/Gau-2965919.inp" -scrdir="/home/k0335/k033513/app/g09/scratch/"
 Default is to use a total of  36 processors:
                               36 via shared-memory
                                1 via Linda
 Entering Link 1 = /home/k0335/k033513/app/g09/l1.exe PID=   2965920.
  
 Copyright (c) 1988,1990,1992,1993,1995,1998,2003,2009,2013,
            Gaussian, Inc.  All Rights Reserved.
  
 This is part of the Gaussian(R) 09 program.  It is based on
 the Gaussian(R) 03 system (copyright 2003, Gaussian, Inc.),
 the Gaussian(R) 98 system (copyright 1998, Gaussian, Inc.),
 the Gaussian(R) 94 system (copyright 1995, Gaussian, Inc.),
 the Gaussian 92(TM) system (copyright 1992, Gaussian, Inc.),
 the Gaussian 90(TM) system (copyright 1990, Gaussian, Inc.),
 the Gaussian 88(TM) system (copyright 1988, Gaussian, Inc.),
 the Gaussian 86(TM) system (copyright 1986, Carnegie Mellon
 University), and the Gaussian 82(TM) system (copyright 1983,
 Carnegie Mellon University). Gaussian is a federally registered
 trademark of Gaussian, Inc.
  
 This software contains proprietary and confidential information,
 including trade secrets, belonging to Gaussian, Inc.
  
 This software is provided under written license and may be
 used, copied, transmitted, or stored only in accord with that
 written license.
  
 The following legend is applicable only to US Government
 contracts under FAR:
  
                    RESTRICTED RIGHTS LEGEND
  
 Use, reproduction and disclosure by the US Government is
 subject to restrictions as set forth in subparagraphs (a)
 and (c) of the Commercial Computer Software - Restricted
 Rights clause in FAR 52.227-19.
  
 Gaussian, Inc.
 340 Quinnipiac St., Bldg. 40, Wallingford CT 06492
  
  
 ---------------------------------------------------------------
 Warning -- This program may not be used in any manner that
 competes with the business of Gaussian, Inc. or will provide
 assistance to any competitor of Gaussian, Inc.  The licensee
 of this program is prohibited from giving any competitor of
 Gaussian, Inc. access to this program.  By using this program,
 the user acknowledges that Gaussian, Inc. is engaged in the
 business of creating and licensing software in the field of
 computational chemistry and represents and warrants to the
 licensee that it is not a competitor of Gaussian, Inc. and that
 it will not use this program in any manner prohibited above.
 ---------------------------------------------------------------
  

 Cite this work as:
 Gaussian 09, Revision D.01,
 M. J. Frisch, G. W. Trucks, H. B. Schlegel, G. E. Scuseria, 
 M. A. Robb, J. R. Cheeseman, G. Scalmani, V. Barone, B. Mennucci, 
 G. A. Petersson, H. Nakatsuji, M. Caricato, X. Li, H. P. Hratchian, 
 A. F. Izmaylov, J. Bloino, G. Zheng, J. L. Sonnenberg, M. Hada, 
 M. Ehara, K. Toyota, R. Fukuda, J. Hasegawa, M. Ishida, T. Nakajima, 
 Y. Honda, O. Kitao, H. Nakai, T. Vreven, J. A. Montgomery, Jr., 
 J. E. Peralta, F. Ogliaro, M. Bearpark, J. J. Heyd, E. Brothers, 
 K. N. Kudin, V. N. Staroverov, T. Keith, R. Kobayashi, J. Normand, 
 K. Raghavachari, A. Rendell, J. C. Burant, S. S. Iyengar, J. Tomasi, 
 M. Cossi, N. Rega, J. M. Millam, M. Klene, J. E. Knox, J. B. Cross, 
 V. Bakken, C. Adamo, J. Jaramillo, R. Gomperts, R. E. Stratmann, 
 O. Yazyev, A. J. Austin, R. Cammi, C. Pomelli, J. W. Ochterski, 
 R. L. Martin, K. Morokuma, V. G. Zakrzewski, G. A. Voth, 
 P. Salvador, J. J. Dannenberg, S. Dapprich, A. D. Daniels, 
 O. Farkas, J. B. Foresman, J. V. Ortiz, J. Cioslowski, 
 and D. J. Fox, Gaussian, Inc., Wallingford CT, 2013.
 
 ******************************************
 Gaussian 09:  ES64L-G09RevD.01 24-Apr-2013
                 3-Feb-2025 
 ******************************************
 %nprocshared=24
 Will use up to   24 processors via shared memory.
 %mem=40GB
 %rwf=cytop/APN2/APN2_neu.rwf
 %nosave
 %chk=cytop/APN2/APN2_neu.chk
 ----------------------------------------------------------------------
 #p CAM-B3LYP/6-31G(d,p) SCRF=(PCM,Solvent=Generic,Read) NoSymm out=wfn
 ----------------------------------------------------------------------
 1/38=1,40=2/1;
 2/12=2,15=1,17=6,18=5,40=1/2;
 3/5=1,6=6,7=101,11=2,16=1,25=1,30=1,70=2203,72=-2,74=-40/1,2,3;
 4//1;
 5/5=2,38=5/2;
 6/7=2,8=2,9=2,10=2,28=1/1;
 99/5=1,6=100,9=1/99;
 Leave Link    1 at Mon Feb  3 21:56:34 2025, MaxMem=  5368709120 cpu:         1.7
 (Enter /home/k0335/k033513/app/g09/l101.exe)
 --------------
 Title APN2_neu
 --------------
 Symbolic Z-matrix:
 Charge =  0 Multiplicity = 1
 F                    -3.04925   3.12545   1.7957 
 C                    -2.89136   1.79067   1.72139 
 F                    -2.78053   1.32272   2.98575 
 C                    -3.99574   1.08868   0.9508 
 F                    -4.33751   1.79343  -0.15482 
 F                    -5.12099   0.88546   1.65555 
 C                    -3.26924  -0.16627   0.58329 
 F                    -3.05165  -0.88149   1.73896 
 C                    -4.01804  -1.05628  -0.37486 
 F                    -5.19754  -1.42083   0.21936 
 C                    -4.26162  -0.45621  -1.75873 
 O                    -5.47271   0.12013  -1.90433 
 O                    -3.4701   -0.45612  -2.6893 
 F                    -3.32415  -2.23082  -0.48862 
 C                    -1.94466   0.43984   0.13847 
 F                    -2.13068   1.08428  -1.04155 
 C                    -0.79512  -0.56397   0.01872 
 F                    -0.66401  -1.2652    1.18627 
 C                     0.54389   0.10534  -0.33943 
 N                     1.63008  -0.70798  -0.00758 
 C                     3.00005  -0.44779  -0.21673 
 C                     3.90634  -1.42142   0.22394 
 C                     5.28622  -1.24497   0.05598 
 C                     6.19744  -2.25259   0.51394 
 N                     6.92815  -3.07225   0.88746 
 C                     5.77039  -0.0878   -0.55715 
 C                     4.87412   0.88879  -1.00059 
 C                     5.36895   2.0783   -1.63131 
 N                     5.78641   3.03424  -2.1389 
 C                     3.49416   0.70671  -0.82973 
 O                     0.62394   1.19413  -0.89867 
 F                    -1.10446  -1.50264  -0.92038 
 O                    -1.64865   1.49219   1.08465 
 H                    -5.49693   0.45641  -2.82696 
 H                     1.39765  -1.58346   0.45687 
 H                     3.54602  -2.33059   0.70403 
 H                     6.843     0.05432  -0.69032 
 H                     2.82813   1.48761  -1.18865 
 
 NAtoms=     38 NQM=       38 NQMF=       0 NMMI=      0 NMMIF=      0
                NMic=       0 NMicF=      0.
                    Isotopes and Nuclear Properties:
 (Nuclear quadrupole moments (NQMom) in fm**2, nuclear magnetic moments (NMagM)
  in nuclear magnetons)

  Atom         1           2           3           4           5           6           7           8           9          10
 IAtWgt=          19          12          19          12          19          19          12          19          12          19
 AtmWgt=  18.9984033  12.0000000  18.9984033  12.0000000  18.9984033  18.9984033  12.0000000  18.9984033  12.0000000  18.9984033
 NucSpn=           1           0           1           0           1           1           0           1           0           1
 AtZEff=   0.0000000   0.0000000   0.0000000   0.0000000   0.0000000   0.0000000   0.0000000   0.0000000   0.0000000   0.0000000
 NQMom=    0.0000000   0.0000000   0.0000000   0.0000000   0.0000000   0.0000000   0.0000000   0.0000000   0.0000000   0.0000000
 NMagM=    2.6288670   0.0000000   2.6288670   0.0000000   2.6288670   2.6288670   0.0000000   2.6288670   0.0000000   2.6288670
 AtZNuc=   9.0000000   6.0000000   9.0000000   6.0000000   9.0000000   9.0000000   6.0000000   9.0000000   6.0000000   9.0000000

  Atom        11          12          13          14          15          16          17          18          19          20
 IAtWgt=          12          16          16          19          12          19          12          19          12          14
 AtmWgt=  12.0000000  15.9949146  15.9949146  18.9984033  12.0000000  18.9984033  12.0000000  18.9984033  12.0000000  14.0030740
 NucSpn=           0           0           0           1           0           1           0           1           0           2
 AtZEff=   0.0000000   0.0000000   0.0000000   0.0000000   0.0000000   0.0000000   0.0000000   0.0000000   0.0000000   0.0000000
 NQMom=    0.0000000   0.0000000   0.0000000   0.0000000   0.0000000   0.0000000   0.0000000   0.0000000   0.0000000   2.0440000
 NMagM=    0.0000000   0.0000000   0.0000000   2.6288670   0.0000000   2.6288670   0.0000000   2.6288670   0.0000000   0.4037610
 AtZNuc=   6.0000000   8.0000000   8.0000000   9.0000000   6.0000000   9.0000000   6.0000000   9.0000000   6.0000000   7.0000000

  Atom        21          22          23          24          25          26          27          28          29          30
 IAtWgt=          12          12          12          12          14          12          12          12          14          12
 AtmWgt=  12.0000000  12.0000000  12.0000000  12.0000000  14.0030740  12.0000000  12.0000000  12.0000000  14.0030740  12.0000000
 NucSpn=           0           0           0           0           2           0           0           0           2           0
 AtZEff=   0.0000000   0.0000000   0.0000000   0.0000000   0.0000000   0.0000000   0.0000000   0.0000000   0.0000000   0.0000000
 NQMom=    0.0000000   0.0000000   0.0000000   0.0000000   2.0440000   0.0000000   0.0000000   0.0000000   2.0440000   0.0000000
 NMagM=    0.0000000   0.0000000   0.0000000   0.0000000   0.4037610   0.0000000   0.0000000   0.0000000   0.4037610   0.0000000
 AtZNuc=   6.0000000   6.0000000   6.0000000   6.0000000   7.0000000   6.0000000   6.0000000   6.0000000   7.0000000   6.0000000

  Atom        31          32          33          34          35          36          37          38
 IAtWgt=          16          19          16           1           1           1           1           1
 AtmWgt=  15.9949146  18.9984033  15.9949146   1.0078250   1.0078250   1.0078250   1.0078250   1.0078250
 NucSpn=           0           1           0           1           1           1           1           1
 AtZEff=   0.0000000   0.0000000   0.0000000   0.0000000   0.0000000   0.0000000   0.0000000   0.0000000
 NQMom=    0.0000000   0.0000000   0.0000000   0.0000000   0.0000000   0.0000000   0.0000000   0.0000000
 NMagM=    0.0000000   2.6288670   0.0000000   2.7928460   2.7928460   2.7928460   2.7928460   2.7928460
 AtZNuc=   8.0000000   9.0000000   8.0000000   1.0000000   1.0000000   1.0000000   1.0000000   1.0000000
 Leave Link  101 at Mon Feb  3 21:56:34 2025, MaxMem=  5368709120 cpu:         0.9
 (Enter /home/k0335/k033513/app/g09/l202.exe)
                          Input orientation:                          
 ---------------------------------------------------------------------
 Center     Atomic      Atomic             Coordinates (Angstroms)
 Number     Number       Type             X           Y           Z
 ---------------------------------------------------------------------
      1          9           0       -3.049251    3.125452    1.795696
      2          6           0       -2.891357    1.790674    1.721386
      3          9           0       -2.780529    1.322715    2.985746
      4          6           0       -3.995743    1.088675    0.950795
      5          9           0       -4.337513    1.793428   -0.154818
      6          9           0       -5.120993    0.885461    1.655548
      7          6           0       -3.269238   -0.166273    0.583292
      8          9           0       -3.051645   -0.881493    1.738956
      9          6           0       -4.018043   -1.056284   -0.374862
     10          9           0       -5.197544   -1.420832    0.219358
     11          6           0       -4.261623   -0.456207   -1.758729
     12          8           0       -5.472708    0.120126   -1.904330
     13          8           0       -3.470097   -0.456116   -2.689295
     14          9           0       -3.324153   -2.230815   -0.488620
     15          6           0       -1.944659    0.439843    0.138468
     16          9           0       -2.130679    1.084283   -1.041553
     17          6           0       -0.795118   -0.563967    0.018717
     18          9           0       -0.664009   -1.265200    1.186270
     19          6           0        0.543894    0.105337   -0.339430
     20          7           0        1.630081   -0.707979   -0.007578
     21          6           0        3.000048   -0.447787   -0.216729
     22          6           0        3.906337   -1.421422    0.223938
     23          6           0        5.286221   -1.244974    0.055981
     24          6           0        6.197444   -2.252589    0.513937
     25          7           0        6.928149   -3.072249    0.887460
     26          6           0        5.770389   -0.087800   -0.557152
     27          6           0        4.874118    0.888790   -1.000593
     28          6           0        5.368949    2.078296   -1.631305
     29          7           0        5.786413    3.034242   -2.138898
     30          6           0        3.494164    0.706707   -0.829728
     31          8           0        0.623942    1.194127   -0.898665
     32          9           0       -1.104457   -1.502644   -0.920382
     33          8           0       -1.648646    1.492189    1.084652
     34          1           0       -5.496933    0.456405   -2.826957
     35          1           0        1.397649   -1.583464    0.456867
     36          1           0        3.546016   -2.330587    0.704033
     37          1           0        6.842999    0.054321   -0.690318
     38          1           0        2.828125    1.487612   -1.188646
 ---------------------------------------------------------------------
                    Distance matrix (angstroms):
                    1          2          3          4          5
     1  F    0.000000
     2  C    1.346137   0.000000
     3  F    2.176762   1.352729   0.000000
     4  C    2.399618   1.518645   2.381711   0.000000
     5  F    2.690430   2.368864   3.536794   1.354940   0.000000
     6  F    3.054393   2.407285   2.727341   1.343190   2.171559
     7  C    3.514793   2.295146   2.868398   1.495915   2.350839
     8  F    4.007347   2.677028   2.546865   2.322516   3.520659
     9  C    4.810072   3.710640   4.299391   2.521649   2.875994
    10  F    5.269602   4.229463   4.584966   2.876969   3.348302
    11  C    5.189611   4.363176   5.279038   3.130315   2.763901
    12  O    5.347459   4.753937   5.710244   3.357268   2.673836
    13  O    5.754988   4.983685   5.987139   3.989102   3.498061
    14  F    5.829517   4.609101   4.999432   3.679941   4.163274
    15  C    3.343505   2.286178   3.095987   2.299522   2.764771
    16  F    3.613880   2.951517   4.086354   2.729090   2.481794
    17  C    4.674461   3.582964   4.037906   3.720752   4.258637
    18  F    5.033747   3.819135   3.796719   4.086151   4.964711
    19  C    5.156602   4.346064   4.857015   4.820782   5.168352
    20  N    6.312142   5.447567   5.704138   5.983004   6.472318
    21  C    7.308345   6.593607   6.841461   7.257060   7.672462
    22  C    8.457227   7.666065   7.737703   8.322967   8.856623
    23  C    9.571172   8.880401   8.958181   9.612568  10.094185
    24  C   10.773467  10.020589   9.974800  10.735732  11.304990
    25  N   11.780700  10.989365  10.861719  11.689684  12.315693
    26  C    9.677134   9.151297   9.362685   9.951650  10.289343
    27  C    8.694922   8.277993   8.641343   9.084179   9.294506
    28  C    9.149151   8.919412   9.396917   9.764428   9.822249
    29  N    9.672554   9.578724  10.128366  10.441361  10.390865
    30  C    7.453822   6.961181   7.369469   7.708104   7.935467
    31  O    4.947923   4.424688   5.166779   4.977259   5.052574
    32  F    5.707765   4.584528   5.103891   4.309962   4.680046
    33  O    2.266015   1.427884   2.219018   2.385289   2.976077
    34  H    5.872298   5.408949   6.474323   4.113970   3.205029
    35  H    6.613719   5.601731   5.683157   6.039285   6.683535
    36  H    8.628884   7.711003   7.653627   8.284345   8.938409
    37  H   10.652170  10.177864  10.379526  11.010970  11.327626
    38  H    6.792081   6.424376   6.993550   7.162509   7.246288
                    6          7          8          9         10
     6  F    0.000000
     7  C    2.384297   0.000000
     8  F    2.722367   1.376389   0.000000
     9  C    3.018184   1.506946   2.330816   0.000000
    10  F    2.717994   2.329105   2.684203   1.370115   0.000000
    11  C    3.767742   2.560069   3.725415   1.527911   2.391501
    12  O    3.658165   3.335501   4.487574   2.416457   2.638241
    13  O    4.837659   3.291531   4.468272   2.452967   3.517814
    14  F    4.187752   2.326874   2.618592   1.368922   2.160301
    15  C    3.548127   1.523074   2.352214   2.607839   3.748322
    16  F    4.031856   2.345278   3.527561   2.930639   4.155858
    17  C    4.846984   2.568691   2.855164   3.283980   4.489524
    18  F    4.970943   2.891097   2.480625   3.705445   4.638112
    19  C    6.056358   3.932577   4.268656   4.707641   5.967038
    20  N    7.133165   4.964464   4.999905   5.670760   6.868488
    21  C    8.440040   6.326392   6.374621   7.046196   8.266650
    22  C    9.426765   7.293381   7.141451   7.955356   9.103882
    23  C   10.742787   8.639302   8.513785   9.316145  10.486513
    24  C   11.800748   9.694101   9.430070  10.323627  11.429101
    25  N   12.705717  10.607729  10.252841  11.201638  12.255854
    26  C   11.156410   9.111620   9.150429   9.837916  11.075897
    27  C   10.342018   8.362780   8.570691   9.123891  10.404855
    28  C   11.057357   9.195695   9.540724   9.975964  11.283600
    29  N   11.746769   9.982907  10.415469  10.769010  12.085378
    30  C    8.968248   6.964361   7.208893   7.729702   9.009594
    31  O    6.294725   4.382207   4.977468   5.185243   6.479019
    32  F    5.335824   2.955199   3.354020   2.997635   4.249595
    33  O    3.570887   2.372378   2.833882   3.773452   4.672162
    34  H    4.518658   4.120698   5.349483   3.238536   3.590778
    35  H    7.072844   4.878960   4.683240   5.504490   6.601472
    36  H    9.293298   7.151680   6.833745   7.746151   8.804113
    37  H   12.220106  10.194512  10.231378  10.922234  12.164632
    38  H    8.464071   6.561474   6.982493   7.348719   8.651756
                   11         12         13         14         15
    11  C    0.000000
    12  O    1.349106   0.000000
    13  O    1.221665   2.226808   0.000000
    14  F    2.375134   3.485319   2.830870   0.000000
    15  C    3.125793   4.089300   3.335558   3.070612   0.000000
    16  F    2.725504   3.583733   2.623342   3.566509   1.357334
    17  C    3.897125   5.103522   3.807949   3.071122   1.530823
    18  F    4.719143   5.881711   4.852706   3.288470   2.375947
    19  C    5.042096   6.216802   4.684999   4.521244   2.556008
    20  N    6.151593   7.398178   5.767743   5.205273   3.757338
    21  C    7.423591   8.657836   6.926502   6.576369   5.036286
    22  C    8.460389   9.740245   7.989401   7.310461   6.140502
    23  C    9.750726  11.020929   9.210426   8.683721   7.425028
    24  C   10.852837  12.151964  10.341632   9.574257   8.583939
    25  N   11.792243  13.105976  11.303134  10.378406   9.571964
    26  C   10.110429  11.325429   9.490431   9.343870   7.764294
    27  C    9.265287  10.414624   8.618956   8.786677   6.927823
    28  C    9.959310  11.020458   9.255880   9.769554   7.701006
    29  N   10.643815  11.632493   9.908002  10.651134   8.466804
    30  C    7.897319   9.050063   7.301444   7.432014   5.530770
    31  O    5.228007   6.271681   4.763487   5.242692   2.870941
    32  F    3.430095   4.762683   3.133772   2.375648   2.366508
    33  O    4.325357   5.043810   4.621283   4.375302   1.445794
    34  H    1.870819   0.982299   2.227041   4.172523   4.627383
    35  H    6.181176   7.461855   5.904591   4.858850   3.919971
    36  H    8.398674   9.702934   8.015869   6.973636   6.175974
    37  H   11.167577  12.375572  10.517433  10.422740   8.835069
    38  H    7.373463   8.443107   6.760002   7.222691   5.063449
                   16         17         18         19         20
    16  F    0.000000
    17  C    2.371629   0.000000
    18  F    3.554488   1.368246   0.000000
    19  C    2.933369   1.539217   2.380160   0.000000
    20  N    4.292391   2.429613   2.645490   1.396929   0.000000
    21  C    5.417742   3.804237   4.007728   2.520654   1.410054
    22  C    6.657746   4.783411   4.673174   3.735559   2.396652
    23  C    7.851142   6.119464   6.056666   4.946651   3.695912
    24  C    9.105597   7.210590   6.964661   6.184713   4.849598
    25  N   10.151858   8.166704   7.809966   7.236092   5.870297
    26  C    8.002206   6.607892   6.769584   5.234592   4.222417
    27  C    7.007644   5.940516   6.331895   4.449919   3.749603
    28  C    7.588168   6.906508   7.450790   5.370537   4.937505
    29  N    8.227202   7.805060   8.435039   6.269017   5.985135
    30  C    5.641480   4.553286   5.024248   3.050595   2.480337
    31  O    2.760511   2.438486   3.471896   1.226628   2.329025
    32  F    2.785679   1.363346   2.165261   2.374904   2.990385
    33  O    2.217993   2.468300   2.929681   2.959493   4.096798
    34  H    3.861808   5.589820   6.513606   6.542372   7.752356
    35  H    4.670250   2.457555   2.209922   2.053055   1.017943
    36  H    6.850786   4.736671   4.369429   4.004407   2.609608
    37  H    9.039418   7.695833   7.849706   6.309077   5.312415
    38  H    4.977353   4.335273   5.041151   2.801707   2.766017
                   21         22         23         24         25
    21  C    0.000000
    22  C    1.401254   0.000000
    23  C    2.436486   1.401222   0.000000
    24  C    3.743598   2.454406   1.433645   0.000000
    25  N    4.851496   3.506685   2.593495   1.159867   0.000000
    26  C    2.814297   2.421433   1.396210   2.452737   3.512015
    27  C    2.431670   2.788038   2.416428   3.730048   4.844958
    28  C    3.740830   4.222462   3.727989   4.903573   5.941666
    29  N    4.856242   5.382436   4.835222   5.929339   6.910256
    30  C    1.397417   2.410193   2.793744   4.227362   5.387160
    31  O    2.967625   4.344589   5.347654   6.703672   7.818902
    32  F    4.295906   5.140440   6.469965   7.479134   8.381808
    33  O    5.202639   6.331492   7.526128   8.712646   9.717736
    34  H    8.934738  10.062588  11.290812  12.460284  13.439902
    35  H    2.076337   2.524684   3.923809   4.846547   5.743546
    36  H    2.165830   1.089451   2.151009   2.659378   3.467352
    37  H    3.904443   3.411402   2.160715   2.681195   3.503152
    38  H    2.172544   3.408873   3.880510   5.314151   6.474005
                   26         27         28         29         30
    26  C    0.000000
    27  C    1.397737   0.000000
    28  C    2.450904   1.434427   0.000000
    29  N    3.499903   2.594414   1.160069   0.000000
    30  C    2.426260   1.402363   2.457356   3.519340   0.000000
    31  O    5.314686   4.262349   4.881968   5.619191   2.912131
    32  F    7.028316   6.439623   7.431926   8.339796   5.102623
    33  O    7.761054   6.874503   7.547621   8.249200   5.543494
    34  H   11.506551  10.539510  11.051131  11.594506   9.213653
    35  H    4.731395   4.508000   5.791388   6.879132   3.360891
    36  H    3.401252   3.877369   5.311792   6.471710   3.402979
    37  H    1.090149   2.160810   2.674837   3.477742   3.414636
    38  H    3.396708   2.140103   2.645872   3.470808   1.087310
                   31         32         33         34         35
    31  O    0.000000
    32  F    3.203187   0.000000
    33  O    3.031014   3.644904   0.000000
    34  H    6.459695   5.173659   5.584160   0.000000
    35  H    3.186079   2.857251   4.374205   7.904418   0.000000
    36  H    4.850852   4.995109   6.460882  10.100007   2.287961
    37  H    6.326076   8.101798   8.793521  12.529997   5.800880
    38  H    2.242464   4.947605   5.020895   8.547166   3.766362
                   36         37         38
    36  H    0.000000
    37  H    4.301406   0.000000
    38  H    4.321602   4.292070   0.000000
 Symmetry turned off by external request.
 Stoichiometry    C16H5F10N3O4
 Framework group  C1[X(C16H5F10N3O4)]
 Deg. of freedom   108
 Full point group                 C1      NOp   1
 Rotational constants (GHZ):      0.2633311      0.0631143      0.0609379
 Leave Link  202 at Mon Feb  3 21:56:34 2025, MaxMem=  5368709120 cpu:         0.0
 (Enter /home/k0335/k033513/app/g09/l301.exe)
 Standard basis: 6-31G(d,p) (6D, 7F)
 Ernie: Thresh=  0.10000D-02 Tol=  0.10000D-05 Strict=F.
   520 basis functions,   959 primitive gaussians,   520 cartesian basis functions
   122 alpha electrons      122 beta electrons
       nuclear repulsion energy      3815.3630040697 Hartrees.
 IExCor=20419 DFT=T Ex+Corr=CAM-B3LYP ExCW=0 ScaHFX=  1.000000
 ScaDFX=  1.000000  1.000000  1.000000  0.810000 ScalE2=  1.000000  1.000000
 IRadAn=      0 IRanWt=     -1 IRanGd=            0 ICorTp=0 IEmpDi=  4
  HFx wShort=  0.000000 wLong=  0.330000 cFull=  0.190000 cShort=  0.000000 cLong=  0.460000
  DFx wShort=  0.000000 wLong=  0.330000 cFull=  0.190000 cShort=  0.000000 cLong=  0.460000
 NAtoms=   38 NActive=   38 NUniq=   38 SFac= 1.00D+00 NAtFMM=   60 NAOKFM=F Big=F
 Integral buffers will be    131072 words long.
 Raffenetti 2 integral format.
 Two-electron integral symmetry is turned off.
 Using the following non-standard input for PCM:
 eps=2.05
 --- end of non-standard input.
 ------------------------------------------------------------------------------
 Polarizable Continuum Model (PCM)
 =================================
 Model                : PCM (using non-symmetric T matrix).
 Atomic radii         : UFF (Universal Force Field).
 Polarization charges : Total charges.
 Charge compensation  : None.
 Solution method      : On-the-fly selection.
 Cavity type          : Scaled VdW (van der Waals Surface) (Alpha=1.100).
 Cavity algorithm     : GePol (No added spheres)
                        Default sphere list used, NSphG=   38.
                        Lebedev-Laikov grids with approx.  5.0 points / Ang**2.
                        Smoothing algorithm: Karplus/York (Gamma=1.0000).
                        Polarization charges: spherical gaussians, with
                                              point-specific exponents (IZeta= 3).
                        Self-potential: point-specific (ISelfS= 7).
                        Self-field    : sphere-specific E.n sum rule (ISelfD= 2).
 Solvent              : Generic,
                        Eps                           =   2.050000
                        Eps(infinity)                 =   0.000000
                        RSolv                         =   0.000000 Ang.
                        Molar volume                  =   0.000000 cm**3/mol
                        Thermal expansion coefficient =   0.000000 K**-1
                        Absolute temperature          = 298.150000 K
                        Numeral density               =   0.000000 Ang**-3
                        Hydrogen bond acidity         =   0.000000
                        Hydrogen bond basicity        =   0.000000
                        Surface tension at interface  =   0.000000 (cal/mol)*Ang**-2
                        Carbon aromaticity            =   0.000000
                        Electronegative halogenicity  =   0.000000
 ------------------------------------------------------------------------------
 GePol: Number of generator spheres                  =      38
 GePol: Total number of spheres                      =      38
 GePol: Number of exposed spheres                    =      37 ( 97.37%)
 GePol: Number of points                             =    3263
 GePol: Average weight of points                     =       0.13
 GePol: Minimum weight of points                     =   0.90D-11
 GePol: Maximum weight of points                     =    0.20577
 GePol: Number of points with low weight             =     162
 GePol: Fraction of low-weight points (<1% of avg)   =       4.96%
 GePol: Cavity surface area                          =    425.873 Ang**2
 GePol: Cavity volume                                =    480.421 Ang**3
 Leave Link  301 at Mon Feb  3 21:56:34 2025, MaxMem=  5368709120 cpu:         0.9
 (Enter /home/k0335/k033513/app/g09/l302.exe)
 NPDir=0 NMtPBC=     1 NCelOv=     1 NCel=       1 NClECP=     1 NCelD=      1
         NCelK=      1 NCelE2=     1 NClLst=     1 CellRange=     0.0.
 One-electron integrals computed using PRISM.
 NBasis=   520 RedAO= T EigKep=  3.86D-04  NBF=   520
 NBsUse=   520 1.00D-06 EigRej= -1.00D+00 NBFU=   520
 Precomputing XC quadrature grid using
 IXCGrd= 4 IRadAn=           0 IRanWt=          -1 IRanGd=           0 AccXCQ= 0.00D+00.
 Generated NRdTot=       0 NPtTot=           0 NUsed=           0 NTot=          32
 NSgBfM=   500   502   502   502   502 MxSgAt=    38 MxSgA2=    38.
 Leave Link  302 at Mon Feb  3 21:56:35 2025, MaxMem=  5368709120 cpu:         9.5
 (Enter /home/k0335/k033513/app/g09/l303.exe)
 DipDrv:  MaxL=1.
 Leave Link  303 at Mon Feb  3 21:56:35 2025, MaxMem=  5368709120 cpu:         0.8
 (Enter /home/k0335/k033513/app/g09/l401.exe)
 ExpMin= 1.61D-01 ExpMax= 7.00D+03 ExpMxC= 1.05D+03 IAcc=1 IRadAn=         1 AccDes= 0.00D+00
 Harris functional with IExCor=20419 and IRadAn=       1 diagonalized for initial guess.
 HarFok:  IExCor=20419 AccDes= 0.00D+00 IRadAn=         1 IDoV= 1 UseB2=F ITyADJ=14
 ICtDFT=  3500011 ScaDFX=  1.000000  1.000000  1.000000  1.000000
 FoFCou: FMM=F IPFlag=           0 FMFlag=      100000 FMFlg1=           0
         NFxFlg=           0 DoJE=T BraDBF=F KetDBF=T FulRan=T
         wScrn=  0.000000 ICntrl=     500 IOpCl=  0 I1Cent=   200000004 NGrid=           0
         NMat0=    1 NMatS0=      1 NMatT0=    0 NMatD0=    1 NMtDS0=    0 NMtDT0=    0
 Symmetry not used in FoFCou.
 Harris En= -2009.86964226101    
 JPrj=0 DoOrth=F DoCkMO=F.
 Leave Link  401 at Mon Feb  3 21:56:36 2025, MaxMem=  5368709120 cpu:        10.5
 (Enter /home/k0335/k033513/app/g09/l502.exe)
 Closed shell SCF:
 Using DIIS extrapolation, IDIIS=  1040.
 Two-electron integral symmetry not used.
 IVT=      845426 IEndB=      845426 NGot=  5368709120 MDV=  5368151255
 LenX=  5368151255 LenY=  5367880335
 Requested convergence on RMS density matrix=1.00D-08 within 128 cycles.
 Requested convergence on MAX density matrix=1.00D-06.
 Requested convergence on             energy=1.00D-06.
 No special actions if energy rises.
 Fock matrices will be formed incrementally for  20 cycles.

 Cycle   1  Pass 1  IDiag  1:
 FoFJK:  IHMeth= 1 ICntrl=       0 DoSepK=T KAlg= 0 I1Cent=   0 FoldK=F
 IRaf=         1 NMat=   1 IRICut=       1 DoRegI=T DoRafI=F ISym2E= 0.
 FoFCou: FMM=F IPFlag=           0 FMFlag=      100000 FMFlg1=           0
         NFxFlg=           0 DoJE=T BraDBF=F KetDBF=F FulRan=T
         wScrn=  0.000000 ICntrl=     500 IOpCl=  0 I1Cent=           0 NGrid=           0
         NMat0=    1 NMatS0=      1 NMatT0=    0 NMatD0=    1 NMtDS0=    0 NMtDT0=    0
 Symmetry not used in FoFCou.
 Inv3:  Mode=1 IEnd=    31941507.
 Iteration    1 A*A^-1 deviation from unit magnitude is 6.44D-15 for   3242.
 Iteration    1 A*A^-1 deviation from orthogonality  is 4.07D-15 for   3257   2023.
 Iteration    1 A^-1*A deviation from unit magnitude is 5.55D-15 for   3239.
 Iteration    1 A^-1*A deviation from orthogonality  is 2.97D-15 for   3246   1416.
 E= -2074.94449312824    
 DIIS: error= 5.18D-02 at cycle   1 NSaved=   1.
 NSaved= 1 IEnMin= 1 EnMin= -2074.94449312824     IErMin= 1 ErrMin= 5.18D-02
 ErrMax= 5.18D-02  0.00D+00 EMaxC= 1.00D-01 BMatC= 1.65D+00 BMatP= 1.65D+00
 IDIUse=3 WtCom= 4.82D-01 WtEn= 5.18D-01
 Coeff-Com:  0.100D+01
 Coeff-En:   0.100D+01
 Coeff:      0.100D+01
 Gap=     0.484 Goal=   None    Shift=    0.000
 GapD=    0.484 DampG=2.000 DampE=0.500 DampFc=1.0000 IDamp=-1.
 RMSDP=3.06D-03 MaxDP=1.24D-01              OVMax= 1.44D-01

 Cycle   2  Pass 1  IDiag  1:
 RMSU=  3.06D-03    CP:  9.92D-01
 E= -2075.16875046605     Delta-E=       -0.224257337811 Rises=F Damp=F
 DIIS: error= 1.61D-02 at cycle   2 NSaved=   2.
 NSaved= 2 IEnMin= 2 EnMin= -2075.16875046605     IErMin= 2 ErrMin= 1.61D-02
 ErrMax= 1.61D-02  0.00D+00 EMaxC= 1.00D-01 BMatC= 5.89D-01 BMatP= 1.65D+00
 IDIUse=3 WtCom= 8.39D-01 WtEn= 1.61D-01
 Coeff-Com:  0.349D+00 0.651D+00
 Coeff-En:   0.342D+00 0.658D+00
 Coeff:      0.348D+00 0.652D+00
 Gap=     0.313 Goal=   None    Shift=    0.000
 RMSDP=1.39D-03 MaxDP=7.04D-02 DE=-2.24D-01 OVMax= 8.77D-02

 Cycle   3  Pass 1  IDiag  1:
 RMSU=  9.68D-04    CP:  9.96D-01  6.77D-01
 E= -2075.43697432557     Delta-E=       -0.268223859519 Rises=F Damp=F
 DIIS: error= 8.71D-03 at cycle   3 NSaved=   3.
 NSaved= 3 IEnMin= 3 EnMin= -2075.43697432557     IErMin= 3 ErrMin= 8.71D-03
 ErrMax= 8.71D-03  0.00D+00 EMaxC= 1.00D-01 BMatC= 1.26D-01 BMatP= 5.89D-01
 IDIUse=3 WtCom= 9.13D-01 WtEn= 8.71D-02
 Coeff-Com:  0.716D-01 0.331D+00 0.598D+00
 Coeff-En:   0.000D+00 0.163D+00 0.837D+00
 Coeff:      0.654D-01 0.316D+00 0.618D+00
 Gap=     0.284 Goal=   None    Shift=    0.000
 RMSDP=6.49D-04 MaxDP=4.32D-02 DE=-2.68D-01 OVMax= 6.67D-02

 Cycle   4  Pass 1  IDiag  1:
 RMSU=  3.51D-04    CP:  9.92D-01  7.63D-01  5.12D-01
 E= -2075.51232286041     Delta-E=       -0.075348534840 Rises=F Damp=F
 DIIS: error= 2.95D-03 at cycle   4 NSaved=   4.
 NSaved= 4 IEnMin= 4 EnMin= -2075.51232286041     IErMin= 4 ErrMin= 2.95D-03
 ErrMax= 2.95D-03  0.00D+00 EMaxC= 1.00D-01 BMatC= 1.13D-02 BMatP= 1.26D-01
 IDIUse=3 WtCom= 9.70D-01 WtEn= 2.95D-02
 Coeff-Com:  0.599D-02 0.102D+00 0.316D+00 0.576D+00
 Coeff-En:   0.000D+00 0.000D+00 0.275D-01 0.973D+00
 Coeff:      0.582D-02 0.994D-01 0.307D+00 0.588D+00
 Gap=     0.282 Goal=   None    Shift=    0.000
 RMSDP=1.96D-04 MaxDP=1.61D-02 DE=-7.53D-02 OVMax= 2.27D-02

 Cycle   5  Pass 1  IDiag  1:
 RMSU=  9.89D-05    CP:  9.92D-01  7.64D-01  6.40D-01  6.72D-01
 E= -2075.52014056862     Delta-E=       -0.007817708206 Rises=F Damp=F
 DIIS: error= 8.73D-04 at cycle   5 NSaved=   5.
 NSaved= 5 IEnMin= 5 EnMin= -2075.52014056862     IErMin= 5 ErrMin= 8.73D-04
 ErrMax= 8.73D-04  0.00D+00 EMaxC= 1.00D-01 BMatC= 8.20D-04 BMatP= 1.13D-02
 IDIUse=3 WtCom= 9.91D-01 WtEn= 8.73D-03
 Coeff-Com:  0.404D-04 0.407D-01 0.149D+00 0.340D+00 0.471D+00
 Coeff-En:   0.000D+00 0.000D+00 0.000D+00 0.000D+00 0.100D+01
 Coeff:      0.401D-04 0.404D-01 0.147D+00 0.337D+00 0.476D+00
 Gap=     0.282 Goal=   None    Shift=    0.000
 RMSDP=4.65D-05 MaxDP=4.04D-03 DE=-7.82D-03 OVMax= 6.04D-03

 Cycle   6  Pass 1  IDiag  1:
 RMSU=  2.91D-05    CP:  9.92D-01  7.67D-01  6.39D-01  6.92D-01  6.50D-01
 E= -2075.52073517168     Delta-E=       -0.000594603061 Rises=F Damp=F
 DIIS: error= 1.19D-04 at cycle   6 NSaved=   6.
 NSaved= 6 IEnMin= 6 EnMin= -2075.52073517168     IErMin= 6 ErrMin= 1.19D-04
 ErrMax= 1.19D-04  0.00D+00 EMaxC= 1.00D-01 BMatC= 1.91D-05 BMatP= 8.20D-04
 IDIUse=3 WtCom= 9.99D-01 WtEn= 1.19D-03
 Coeff-Com: -0.568D-03 0.467D-03 0.876D-02 0.323D-01 0.141D+00 0.818D+00
 Coeff-En:   0.000D+00 0.000D+00 0.000D+00 0.000D+00 0.000D+00 0.100D+01
 Coeff:     -0.567D-03 0.466D-03 0.875D-02 0.323D-01 0.141D+00 0.818D+00
 Gap=     0.282 Goal=   None    Shift=    0.000
 RMSDP=1.30D-05 MaxDP=7.20D-04 DE=-5.95D-04 OVMax= 9.29D-04

 Cycle   7  Pass 1  IDiag  1:
 RMSU=  8.90D-06    CP:  9.92D-01  7.67D-01  6.42D-01  7.08D-01  7.17D-01
                    CP:  9.69D-01
 E= -2075.52075179163     Delta-E=       -0.000016619946 Rises=F Damp=F
 DIIS: error= 1.00D-04 at cycle   7 NSaved=   7.
 NSaved= 7 IEnMin= 7 EnMin= -2075.52075179163     IErMin= 7 ErrMin= 1.00D-04
 ErrMax= 1.00D-04  0.00D+00 EMaxC= 1.00D-01 BMatC= 4.36D-06 BMatP= 1.91D-05
 IDIUse=3 WtCom= 9.99D-01 WtEn= 1.00D-03
 Coeff-Com: -0.243D-03-0.455D-02-0.124D-01-0.228D-01 0.172D-01 0.390D+00
 Coeff-Com:  0.632D+00
 Coeff-En:   0.000D+00 0.000D+00 0.000D+00 0.000D+00 0.000D+00 0.000D+00
 Coeff-En:   0.100D+01
 Coeff:     -0.243D-03-0.454D-02-0.124D-01-0.228D-01 0.172D-01 0.390D+00
 Coeff:      0.633D+00
 Gap=     0.282 Goal=   None    Shift=    0.000
 RMSDP=5.40D-06 MaxDP=4.80D-04 DE=-1.66D-05 OVMax= 7.40D-04

 Cycle   8  Pass 1  IDiag  1:
 RMSU=  3.23D-06    CP:  9.92D-01  7.67D-01  6.43D-01  7.09D-01  7.37D-01
                    CP:  1.07D+00  8.07D-01
 E= -2075.52075592358     Delta-E=       -0.000004131949 Rises=F Damp=F
 DIIS: error= 2.01D-05 at cycle   8 NSaved=   8.
 NSaved= 8 IEnMin= 8 EnMin= -2075.52075592358     IErMin= 8 ErrMin= 2.01D-05
 ErrMax= 2.01D-05  0.00D+00 EMaxC= 1.00D-01 BMatC= 3.45D-07 BMatP= 4.36D-06
 IDIUse=1 WtCom= 1.00D+00 WtEn= 0.00D+00
 Coeff-Com: -0.331D-04-0.180D-02-0.542D-02-0.120D-01-0.586D-02 0.652D-01
 Coeff-Com:  0.251D+00 0.709D+00
 Coeff:     -0.331D-04-0.180D-02-0.542D-02-0.120D-01-0.586D-02 0.652D-01
 Coeff:      0.251D+00 0.709D+00
 Gap=     0.282 Goal=   None    Shift=    0.000
 RMSDP=1.70D-06 MaxDP=1.35D-04 DE=-4.13D-06 OVMax= 2.39D-04

 Cycle   9  Pass 1  IDiag  1:
 RMSU=  1.42D-06    CP:  9.92D-01  7.67D-01  6.44D-01  7.09D-01  7.41D-01
                    CP:  1.09D+00  8.83D-01  9.50D-01
 E= -2075.52075625582     Delta-E=       -0.000000332245 Rises=F Damp=F
 DIIS: error= 1.33D-05 at cycle   9 NSaved=   9.
 NSaved= 9 IEnMin= 9 EnMin= -2075.52075625582     IErMin= 9 ErrMin= 1.33D-05
 ErrMax= 1.33D-05  0.00D+00 EMaxC= 1.00D-01 BMatC= 1.10D-07 BMatP= 3.45D-07
 IDIUse=1 WtCom= 1.00D+00 WtEn= 0.00D+00
 Coeff-Com:  0.214D-04-0.255D-03-0.926D-03-0.312D-02-0.693D-02-0.385D-01
 Coeff-Com:  0.414D-01 0.413D+00 0.595D+00
 Coeff:      0.214D-04-0.255D-03-0.926D-03-0.312D-02-0.693D-02-0.385D-01
 Coeff:      0.414D-01 0.413D+00 0.595D+00
 Gap=     0.282 Goal=   None    Shift=    0.000
 RMSDP=8.65D-07 MaxDP=8.41D-05 DE=-3.32D-07 OVMax= 1.12D-04

 Cycle  10  Pass 1  IDiag  1:
 RMSU=  5.50D-07    CP:  9.92D-01  7.67D-01  6.44D-01  7.10D-01  7.43D-01
                    CP:  1.09D+00  9.12D-01  1.07D+00  8.17D-01
 E= -2075.52075636651     Delta-E=       -0.000000110688 Rises=F Damp=F
 DIIS: error= 5.25D-06 at cycle  10 NSaved=  10.
 NSaved=10 IEnMin=10 EnMin= -2075.52075636651     IErMin=10 ErrMin= 5.25D-06
 ErrMax= 5.25D-06  0.00D+00 EMaxC= 1.00D-01 BMatC= 1.13D-08 BMatP= 1.10D-07
 IDIUse=1 WtCom= 1.00D+00 WtEn= 0.00D+00
 Coeff-Com:  0.157D-04 0.218D-03 0.606D-03 0.820D-03-0.205D-02-0.315D-01
 Coeff-Com: -0.223D-01 0.496D-01 0.265D+00 0.739D+00
 Coeff:      0.157D-04 0.218D-03 0.606D-03 0.820D-03-0.205D-02-0.315D-01
 Coeff:     -0.223D-01 0.496D-01 0.265D+00 0.739D+00
 Gap=     0.282 Goal=   None    Shift=    0.000
 RMSDP=3.53D-07 MaxDP=2.74D-05 DE=-1.11D-07 OVMax= 4.98D-05

 Cycle  11  Pass 1  IDiag  1:
 RMSU=  1.94D-07    CP:  9.92D-01  7.67D-01  6.44D-01  7.10D-01  7.43D-01
                    CP:  1.09D+00  9.29D-01  1.09D+00  9.80D-01  1.01D+00
 E= -2075.52075638115     Delta-E=       -0.000000014640 Rises=F Damp=F
 DIIS: error= 1.55D-06 at cycle  11 NSaved=  11.
 NSaved=11 IEnMin=11 EnMin= -2075.52075638115     IErMin=11 ErrMin= 1.55D-06
 ErrMax= 1.55D-06  0.00D+00 EMaxC= 1.00D-01 BMatC= 2.04D-09 BMatP= 1.13D-08
 IDIUse=1 WtCom= 1.00D+00 WtEn= 0.00D+00
 Coeff-Com:  0.409D-05 0.138D-03 0.421D-03 0.839D-03 0.396D-04-0.937D-02
 Coeff-Com: -0.127D-01-0.334D-01 0.358D-01 0.360D+00 0.659D+00
 Coeff:      0.409D-05 0.138D-03 0.421D-03 0.839D-03 0.396D-04-0.937D-02
 Coeff:     -0.127D-01-0.334D-01 0.358D-01 0.360D+00 0.659D+00
 Gap=     0.282 Goal=   None    Shift=    0.000
 RMSDP=1.13D-07 MaxDP=6.56D-06 DE=-1.46D-08 OVMax= 2.47D-05

 Cycle  12  Pass 1  IDiag  1:
 RMSU=  7.61D-08    CP:  9.92D-01  7.67D-01  6.44D-01  7.10D-01  7.44D-01
                    CP:  1.10D+00  9.31D-01  1.10D+00  1.00D+00  1.11D+00
                    CP:  8.81D-01
 E= -2075.52075638351     Delta-E=       -0.000000002365 Rises=F Damp=F
 DIIS: error= 4.48D-07 at cycle  12 NSaved=  12.
 NSaved=12 IEnMin=12 EnMin= -2075.52075638351     IErMin=12 ErrMin= 4.48D-07
 ErrMax= 4.48D-07  0.00D+00 EMaxC= 1.00D-01 BMatC= 1.65D-10 BMatP= 2.04D-09
 IDIUse=1 WtCom= 1.00D+00 WtEn= 0.00D+00
 Coeff-Com: -0.692D-06 0.128D-04 0.484D-04 0.158D-03 0.285D-03 0.147D-02
 Coeff-Com:  0.283D-03-0.188D-01-0.321D-01 0.147D-02 0.192D+00 0.855D+00
 Coeff:     -0.692D-06 0.128D-04 0.484D-04 0.158D-03 0.285D-03 0.147D-02
 Coeff:      0.283D-03-0.188D-01-0.321D-01 0.147D-02 0.192D+00 0.855D+00
 Gap=     0.282 Goal=   None    Shift=    0.000
 RMSDP=5.46D-08 MaxDP=4.14D-06 DE=-2.36D-09 OVMax= 8.27D-06

 Cycle  13  Pass 1  IDiag  1:
 RMSU=  2.62D-08    CP:  9.92D-01  7.67D-01  6.44D-01  7.10D-01  7.44D-01
                    CP:  1.09D+00  9.32D-01  1.10D+00  1.02D+00  1.16D+00
                    CP:  1.01D+00  1.10D+00
 E= -2075.52075638362     Delta-E=       -0.000000000108 Rises=F Damp=F
 DIIS: error= 2.12D-07 at cycle  13 NSaved=  13.
 NSaved=13 IEnMin=13 EnMin= -2075.52075638362     IErMin=13 ErrMin= 2.12D-07
 ErrMax= 2.12D-07  0.00D+00 EMaxC= 1.00D-01 BMatC= 4.08D-11 BMatP= 1.65D-10
 IDIUse=1 WtCom= 1.00D+00 WtEn= 0.00D+00
 Coeff-Com: -0.105D-05-0.147D-04-0.387D-04-0.435D-04 0.133D-03 0.221D-02
 Coeff-Com:  0.243D-02-0.489D-02-0.226D-01-0.518D-01 0.502D-02 0.418D+00
 Coeff-Com:  0.652D+00
 Coeff:     -0.105D-05-0.147D-04-0.387D-04-0.435D-04 0.133D-03 0.221D-02
 Coeff:      0.243D-02-0.489D-02-0.226D-01-0.518D-01 0.502D-02 0.418D+00
 Coeff:      0.652D+00
 Gap=     0.282 Goal=   None    Shift=    0.000
 RMSDP=1.87D-08 MaxDP=8.68D-07 DE=-1.08D-10 OVMax= 3.00D-06

 Cycle  14  Pass 1  IDiag  1:
 RMSU=  1.22D-08    CP:  9.92D-01  7.67D-01  6.44D-01  7.10D-01  7.43D-01
                    CP:  1.09D+00  9.32D-01  1.10D+00  1.02D+00  1.17D+00
                    CP:  1.04D+00  1.22D+00  9.21D-01
 E= -2075.52075638358     Delta-E=        0.000000000046 Rises=F Damp=F
 DIIS: error= 8.93D-08 at cycle  14 NSaved=  14.
 NSaved=14 IEnMin=13 EnMin= -2075.52075638362     IErMin=14 ErrMin= 8.93D-08
 ErrMax= 8.93D-08  0.00D+00 EMaxC= 1.00D-01 BMatC= 6.94D-12 BMatP= 4.08D-11
 IDIUse=1 WtCom= 1.00D+00 WtEn= 0.00D+00
 Coeff-Com: -0.360D-06-0.827D-05-0.231D-04-0.407D-04 0.393D-06 0.696D-03
 Coeff-Com:  0.112D-02 0.617D-03-0.479D-02-0.200D-01-0.205D-01 0.526D-01
 Coeff-Com:  0.313D+00 0.678D+00
 Coeff:     -0.360D-06-0.827D-05-0.231D-04-0.407D-04 0.393D-06 0.696D-03
 Coeff:      0.112D-02 0.617D-03-0.479D-02-0.200D-01-0.205D-01 0.526D-01
 Coeff:      0.313D+00 0.678D+00
 Gap=     0.282 Goal=   None    Shift=    0.000
 RMSDP=6.35D-09 MaxDP=4.76D-07 DE= 4.64D-11 OVMax= 1.10D-06

 Error on total polarization charges =  0.00258
 SCF Done:  E(RCAM-B3LYP) =  -2075.52075638     A.U. after   14 cycles
            NFock= 14  Conv=0.64D-08     -V/T= 2.0077
 KE= 2.059720150418D+03 PE=-1.251652968622D+04 EE= 4.565925775349D+03
 Leave Link  502 at Mon Feb  3 21:57:16 2025, MaxMem=  5368709120 cpu:       907.8
 (Enter /home/k0335/k033513/app/g09/l601.exe)
 Copying SCF densities to generalized density rwf, IOpCl= 0 IROHF=0.

 **********************************************************************

            Population analysis using the SCF density.

 **********************************************************************

 Alpha  occ. eigenvalues --  -24.84300 -24.83901 -24.83695 -24.83311 -24.83282
 Alpha  occ. eigenvalues --  -24.83248 -24.82827 -24.82560 -24.82503 -24.82254
 Alpha  occ. eigenvalues --  -19.32183 -19.30425 -19.25617 -19.25374 -14.49800
 Alpha  occ. eigenvalues --  -14.43295 -14.42992 -10.53069 -10.49572 -10.49477
 Alpha  occ. eigenvalues --  -10.49410 -10.48052 -10.44742 -10.43281 -10.43195
 Alpha  occ. eigenvalues --  -10.36479 -10.34383 -10.34129 -10.32714 -10.32468
 Alpha  occ. eigenvalues --  -10.32397 -10.32103 -10.31629  -1.41096  -1.39256
 Alpha  occ. eigenvalues --   -1.38593  -1.37967  -1.36130  -1.35057  -1.33327
 Alpha  occ. eigenvalues --   -1.32300  -1.32122  -1.31055  -1.22391  -1.20240
 Alpha  occ. eigenvalues --   -1.17204  -1.12618  -1.06979  -1.01538  -1.00639
 Alpha  occ. eigenvalues --   -0.98279  -0.98193  -0.92226  -0.90242  -0.89342
 Alpha  occ. eigenvalues --   -0.88188  -0.83289  -0.79231  -0.78005  -0.77466
 Alpha  occ. eigenvalues --   -0.75945  -0.74504  -0.73207  -0.71630  -0.70953
 Alpha  occ. eigenvalues --   -0.69438  -0.68712  -0.67993  -0.67484  -0.67275
 Alpha  occ. eigenvalues --   -0.66574  -0.65954  -0.65597  -0.64713  -0.63400
 Alpha  occ. eigenvalues --   -0.62953  -0.60689  -0.59029  -0.58806  -0.58661
 Alpha  occ. eigenvalues --   -0.58504  -0.58312  -0.57439  -0.56283  -0.56066
 Alpha  occ. eigenvalues --   -0.55782  -0.55016  -0.54981  -0.54637  -0.54402
 Alpha  occ. eigenvalues --   -0.53921  -0.53720  -0.53397  -0.52684  -0.52622
 Alpha  occ. eigenvalues --   -0.52119  -0.51900  -0.51335  -0.51169  -0.50695
 Alpha  occ. eigenvalues --   -0.50327  -0.49769  -0.49412  -0.48879  -0.48586
 Alpha  occ. eigenvalues --   -0.48480  -0.47398  -0.45776  -0.45521  -0.45267
 Alpha  occ. eigenvalues --   -0.44753  -0.44460  -0.44263  -0.43034  -0.42181
 Alpha  occ. eigenvalues --   -0.41402  -0.41062  -0.39548  -0.38098  -0.37005
 Alpha  occ. eigenvalues --   -0.34272  -0.32092
 Alpha virt. eigenvalues --   -0.03842  -0.03079  -0.00550   0.01233   0.04773
 Alpha virt. eigenvalues --    0.06395   0.07039   0.08120   0.08895   0.10285
 Alpha virt. eigenvalues --    0.10722   0.11234   0.11811   0.13415   0.14995
 Alpha virt. eigenvalues --    0.15758   0.17432   0.17989   0.19076   0.20466
 Alpha virt. eigenvalues --    0.21703   0.22110   0.23031   0.23341   0.23692
 Alpha virt. eigenvalues --    0.25330   0.25935   0.26749   0.27025   0.27769
 Alpha virt. eigenvalues --    0.27945   0.29869   0.31786   0.32212   0.32781
 Alpha virt. eigenvalues --    0.33079   0.33611   0.34740   0.35638   0.35971
 Alpha virt. eigenvalues --    0.38242   0.39454   0.41279   0.42166   0.45220
 Alpha virt. eigenvalues --    0.46053   0.47096   0.48560   0.50488   0.50915
 Alpha virt. eigenvalues --    0.51866   0.52410   0.53606   0.54330   0.55642
 Alpha virt. eigenvalues --    0.56175   0.56459   0.56946   0.57461   0.57878
 Alpha virt. eigenvalues --    0.58610   0.59172   0.60065   0.60673   0.61508
 Alpha virt. eigenvalues --    0.62284   0.62947   0.63345   0.63520   0.63899
 Alpha virt. eigenvalues --    0.64249   0.65138   0.65997   0.68115   0.68702
 Alpha virt. eigenvalues --    0.68965   0.69555   0.70119   0.70439   0.71149
 Alpha virt. eigenvalues --    0.72918   0.73196   0.74666   0.75698   0.76010
 Alpha virt. eigenvalues --    0.76472   0.77482   0.78448   0.79111   0.79411
 Alpha virt. eigenvalues --    0.81150   0.82190   0.82599   0.82747   0.84739
 Alpha virt. eigenvalues --    0.85302   0.86089   0.88039   0.88462   0.89096
 Alpha virt. eigenvalues --    0.89474   0.90730   0.91408   0.91772   0.91946
 Alpha virt. eigenvalues --    0.93302   0.93961   0.94694   0.97963   0.98289
 Alpha virt. eigenvalues --    0.99869   1.00716   1.01844   1.02669   1.03356
 Alpha virt. eigenvalues --    1.04204   1.06155   1.06683   1.07477   1.09203
 Alpha virt. eigenvalues --    1.09664   1.10707   1.11029   1.12264   1.13554
 Alpha virt. eigenvalues --    1.14108   1.15021   1.16393   1.16931   1.17939
 Alpha virt. eigenvalues --    1.18855   1.19434   1.20237   1.22016   1.22457
 Alpha virt. eigenvalues --    1.23754   1.25294   1.25569   1.25895   1.26952
 Alpha virt. eigenvalues --    1.27905   1.28325   1.29550   1.30492   1.31713
 Alpha virt. eigenvalues --    1.33412   1.33649   1.34148   1.35405   1.35821
 Alpha virt. eigenvalues --    1.36293   1.36742   1.36968   1.37876   1.38027
 Alpha virt. eigenvalues --    1.38874   1.39285   1.39830   1.40552   1.40958
 Alpha virt. eigenvalues --    1.41482   1.42247   1.42307   1.42920   1.43483
 Alpha virt. eigenvalues --    1.44214   1.45114   1.45655   1.47938   1.48319
 Alpha virt. eigenvalues --    1.49144   1.50274   1.50680   1.52153   1.52458
 Alpha virt. eigenvalues --    1.53476   1.54036   1.55193   1.56592   1.57246
 Alpha virt. eigenvalues --    1.57666   1.58174   1.58241   1.59043   1.59479
 Alpha virt. eigenvalues --    1.60243   1.60916   1.61982   1.62486   1.64621
 Alpha virt. eigenvalues --    1.64832   1.67047   1.67566   1.67967   1.69087
 Alpha virt. eigenvalues --    1.71031   1.73095   1.74117   1.74851   1.75065
 Alpha virt. eigenvalues --    1.75899   1.77177   1.78157   1.78674   1.79305
 Alpha virt. eigenvalues --    1.79597   1.79910   1.80929   1.81103   1.81761
 Alpha virt. eigenvalues --    1.82713   1.82785   1.83857   1.84418   1.84443
 Alpha virt. eigenvalues --    1.85215   1.85478   1.86926   1.87145   1.88066
 Alpha virt. eigenvalues --    1.88304   1.88622   1.88845   1.89845   1.90154
 Alpha virt. eigenvalues --    1.91333   1.92391   1.93502   1.93813   1.94571
 Alpha virt. eigenvalues --    1.95487   1.96294   1.97077   1.98352   1.99370
 Alpha virt. eigenvalues --    1.99527   2.00233   2.00727   2.01061   2.01166
 Alpha virt. eigenvalues --    2.02194   2.03597   2.03876   2.05173   2.05516
 Alpha virt. eigenvalues --    2.05755   2.06225   2.06493   2.07387   2.07504
 Alpha virt. eigenvalues --    2.08073   2.08256   2.08570   2.08964   2.09924
 Alpha virt. eigenvalues --    2.10494   2.11837   2.12048   2.12795   2.13715
 Alpha virt. eigenvalues --    2.14332   2.15954   2.16847   2.17121   2.17604
 Alpha virt. eigenvalues --    2.18566   2.20096   2.22158   2.23565   2.24031
 Alpha virt. eigenvalues --    2.25121   2.26084   2.27874   2.29152   2.30765
 Alpha virt. eigenvalues --    2.31259   2.32249   2.33654   2.34360   2.35589
 Alpha virt. eigenvalues --    2.36022   2.36696   2.39025   2.40427   2.41822
 Alpha virt. eigenvalues --    2.42028   2.44128   2.45091   2.45526   2.45947
 Alpha virt. eigenvalues --    2.47019   2.47482   2.50386   2.51899   2.52386
 Alpha virt. eigenvalues --    2.53129   2.53887   2.54308   2.55719   2.56050
 Alpha virt. eigenvalues --    2.57752   2.58098   2.59762   2.60698   2.61360
 Alpha virt. eigenvalues --    2.63240   2.64014   2.65308   2.67191   2.69470
 Alpha virt. eigenvalues --    2.70353   2.70605   2.71864   2.73003   2.73660
 Alpha virt. eigenvalues --    2.74728   2.75658   2.77868   2.78381   2.80280
 Alpha virt. eigenvalues --    2.81719   2.82347   2.83681   2.84384   2.84642
 Alpha virt. eigenvalues --    2.85371   2.87312   2.88230   2.89030   2.89595
 Alpha virt. eigenvalues --    2.91057   2.91489   2.92235   2.93816   2.94236
 Alpha virt. eigenvalues --    2.96285   2.98511   3.00015   3.01672   3.02199
 Alpha virt. eigenvalues --    3.06989   3.09560   3.09906   3.11936   3.12774
 Alpha virt. eigenvalues --    3.14030   3.14245   3.16885   3.18197   3.18846
 Alpha virt. eigenvalues --    3.20093   3.23745   3.25962   3.27621   3.30100
 Alpha virt. eigenvalues --    3.30989   3.32707   3.33785   3.36336   3.41353
 Alpha virt. eigenvalues --    3.45602   3.47008   3.47325   3.60315   3.80836
 Alpha virt. eigenvalues --    3.98857   4.08096   4.09548   4.12437   4.17769
 Alpha virt. eigenvalues --    4.19165   4.21839   4.25144   4.29214   4.31539
 Alpha virt. eigenvalues --    4.37324   4.37857   4.39524   4.45945   4.50049
 Alpha virt. eigenvalues --    4.52651   4.56537   4.64587   4.69112   4.69722
 Alpha virt. eigenvalues --    4.85158   4.88976   4.95321   4.98897   5.15403
 Alpha virt. eigenvalues --    5.18162   5.26938   5.54632   5.63460   6.02167
 Alpha virt. eigenvalues --    6.13873   6.63759   7.08494
          Condensed to atoms (all electrons):
               1          2          3          4          5          6
     1  F    9.031501   0.317935  -0.041678  -0.024813  -0.000342  -0.000107
     2  C    0.317935   4.343049   0.276787   0.234707  -0.016856  -0.021266
     3  F   -0.041678   0.276787   9.094899  -0.030967   0.000308  -0.000097
     4  C   -0.024813   0.234707  -0.030967   4.794629   0.221075   0.290811
     5  F   -0.000342  -0.016856   0.000308   0.221075   9.116645  -0.039511
     6  F   -0.000107  -0.021266  -0.000097   0.290811  -0.039511   9.050285
     7  C    0.001730  -0.089574   0.004560   0.108772  -0.039624  -0.029325
     8  F    0.000002   0.013164  -0.000562  -0.021880   0.000366  -0.000728
     9  C   -0.000033   0.003708  -0.000002  -0.026416  -0.003809  -0.001471
    10  F    0.000000   0.000091   0.000000   0.007187  -0.000179  -0.000005
    11  C    0.000001  -0.000181   0.000002  -0.008276   0.013730  -0.000673
    12  O    0.000000   0.000029   0.000000   0.006373  -0.004334  -0.000070
    13  O    0.000000   0.000005   0.000000  -0.000401  -0.000523  -0.000001
    14  F    0.000000  -0.000074   0.000000   0.002056   0.000001  -0.000001
    15  C    0.001088  -0.032233  -0.001207  -0.038671   0.013764   0.001900
    16  F   -0.000006   0.003168  -0.000007   0.000771  -0.001855  -0.000001
    17  C   -0.000040  -0.002303  -0.000051   0.004105   0.000087  -0.000032
    18  F    0.000000   0.000106  -0.000003   0.000057   0.000000   0.000000
    19  C   -0.000001  -0.000106   0.000002  -0.000149   0.000000   0.000000
    20  N    0.000000  -0.000002   0.000000   0.000001   0.000000   0.000000
    21  C    0.000000   0.000000   0.000000   0.000000   0.000000   0.000000
    22  C    0.000000   0.000000   0.000000   0.000000   0.000000   0.000000
    23  C    0.000000   0.000000   0.000000   0.000000   0.000000   0.000000
    24  C    0.000000   0.000000   0.000000   0.000000   0.000000   0.000000
    25  N    0.000000   0.000000   0.000000   0.000000   0.000000   0.000000
    26  C    0.000000   0.000000   0.000000   0.000000   0.000000   0.000000
    27  C    0.000000   0.000000   0.000000   0.000000   0.000000   0.000000
    28  C    0.000000   0.000000   0.000000   0.000000   0.000000   0.000000
    29  N    0.000000   0.000000   0.000000   0.000000   0.000000   0.000000
    30  C    0.000000   0.000000   0.000000   0.000000   0.000000   0.000000
    31  O    0.000000   0.000116   0.000000  -0.000018   0.000000   0.000000
    32  F    0.000000   0.000015   0.000000   0.000029   0.000000   0.000000
    33  O   -0.041017   0.186871  -0.050857  -0.045001  -0.001367   0.000748
    34  H    0.000000  -0.000003   0.000000  -0.000131   0.000242   0.000002
    35  H    0.000000   0.000000   0.000000   0.000000   0.000000   0.000000
    36  H    0.000000   0.000000   0.000000   0.000000   0.000000   0.000000
    37  H    0.000000   0.000000   0.000000   0.000000   0.000000   0.000000
    38  H    0.000000   0.000000   0.000000   0.000000   0.000000   0.000000
               7          8          9         10         11         12
     1  F    0.001730   0.000002  -0.000033   0.000000   0.000001   0.000000
     2  C   -0.089574   0.013164   0.003708   0.000091  -0.000181   0.000029
     3  F    0.004560  -0.000562  -0.000002   0.000000   0.000002   0.000000
     4  C    0.108772  -0.021880  -0.026416   0.007187  -0.008276   0.006373
     5  F   -0.039624   0.000366  -0.003809  -0.000179   0.013730  -0.004334
     6  F   -0.029325  -0.000728  -0.001471  -0.000005  -0.000673  -0.000070
     7  C    5.529530   0.187890   0.232371  -0.027063  -0.077924   0.000350
     8  F    0.187890   9.154389  -0.014248  -0.001331   0.002037  -0.000004
     9  C    0.232371  -0.014248   4.592028   0.254411   0.204527  -0.066674
    10  F   -0.027063  -0.001331   0.254411   9.112366  -0.034922   0.002632
    11  C   -0.077924   0.002037   0.204527  -0.034922   4.646056   0.240148
    12  O    0.000350  -0.000004  -0.066674   0.002632   0.240148   8.105579
    13  O   -0.001295  -0.000004  -0.046612   0.000759   0.527528  -0.093219
    14  F   -0.033359  -0.001048   0.279806  -0.041818  -0.033088   0.000656
    15  C    0.128555  -0.026806  -0.032924   0.002388  -0.002101  -0.000063
    16  F   -0.025483   0.000351  -0.003805   0.000000   0.013908  -0.000291
    17  C   -0.025893   0.004919  -0.006774   0.000027   0.000869  -0.000006
    18  F    0.001479  -0.001082  -0.000874   0.000000   0.000012   0.000000
    19  C    0.003818   0.000077   0.000141   0.000000   0.000029   0.000000
    20  N   -0.000059   0.000000  -0.000001   0.000000   0.000000   0.000000
    21  C    0.000001   0.000000   0.000000   0.000000   0.000000   0.000000
    22  C    0.000000   0.000000   0.000000   0.000000   0.000000   0.000000
    23  C    0.000000   0.000000   0.000000   0.000000   0.000000   0.000000
    24  C    0.000000   0.000000   0.000000   0.000000   0.000000   0.000000
    25  N    0.000000   0.000000   0.000000   0.000000   0.000000   0.000000
    26  C    0.000000   0.000000   0.000000   0.000000   0.000000   0.000000
    27  C    0.000000   0.000000   0.000000   0.000000   0.000000   0.000000
    28  C    0.000000   0.000000   0.000000   0.000000   0.000000   0.000000
    29  N    0.000000   0.000000   0.000000   0.000000   0.000000   0.000000
    30  C    0.000000   0.000000   0.000000   0.000000   0.000000   0.000000
    31  O    0.000150   0.000000  -0.000006   0.000000   0.000004   0.000000
    32  F   -0.003720  -0.000219   0.009878   0.000000  -0.001620   0.000001
    33  O   -0.012781  -0.002734   0.002702  -0.000005  -0.000095   0.000000
    34  H   -0.000222   0.000000   0.006804  -0.000124  -0.011842   0.282421
    35  H   -0.000020   0.000003  -0.000001   0.000000   0.000000   0.000000
    36  H    0.000000   0.000000   0.000000   0.000000   0.000000   0.000000
    37  H    0.000000   0.000000   0.000000   0.000000   0.000000   0.000000
    38  H    0.000000   0.000000   0.000000   0.000000   0.000000   0.000000
              13         14         15         16         17         18
     1  F    0.000000   0.000000   0.001088  -0.000006  -0.000040   0.000000
     2  C    0.000005  -0.000074  -0.032233   0.003168  -0.002303   0.000106
     3  F    0.000000   0.000000  -0.001207  -0.000007  -0.000051  -0.000003
     4  C   -0.000401   0.002056  -0.038671   0.000771   0.004105   0.000057
     5  F   -0.000523   0.000001   0.013764  -0.001855   0.000087   0.000000
     6  F   -0.000001  -0.000001   0.001900  -0.000001  -0.000032   0.000000
     7  C   -0.001295  -0.033359   0.128555  -0.025483  -0.025893   0.001479
     8  F   -0.000004  -0.001048  -0.026806   0.000351   0.004919  -0.001082
     9  C   -0.046612   0.279806  -0.032924  -0.003805  -0.006774  -0.000874
    10  F    0.000759  -0.041818   0.002388   0.000000   0.000027   0.000000
    11  C    0.527528  -0.033088  -0.002101   0.013908   0.000869   0.000012
    12  O   -0.093219   0.000656  -0.000063  -0.000291  -0.000006   0.000000
    13  O    8.052523  -0.001822   0.005233  -0.006221  -0.000573   0.000000
    14  F   -0.001822   9.099588  -0.003715  -0.000008   0.008989  -0.000216
    15  C    0.005233  -0.003715   5.022166   0.214329   0.182777  -0.024788
    16  F   -0.006221  -0.000008   0.214329   9.142832  -0.025700   0.000272
    17  C   -0.000573   0.008989   0.182777  -0.025700   4.744883   0.228079
    18  F    0.000000  -0.000216  -0.024788   0.000272   0.228079   9.130757
    19  C   -0.000003   0.000073  -0.052863  -0.000687   0.269518  -0.031603
    20  N    0.000000   0.000000   0.004095   0.000020  -0.074619  -0.002885
    21  C    0.000000   0.000000  -0.000113   0.000001   0.004051   0.000389
    22  C    0.000000   0.000000  -0.000001   0.000000  -0.000368  -0.000045
    23  C    0.000000   0.000000   0.000000   0.000000   0.000000   0.000000
    24  C    0.000000   0.000000   0.000000   0.000000   0.000000   0.000000
    25  N    0.000000   0.000000   0.000000   0.000000   0.000000   0.000000
    26  C    0.000000   0.000000   0.000000   0.000000   0.000000   0.000000
    27  C    0.000000   0.000000   0.000000   0.000000   0.000005   0.000000
    28  C    0.000000   0.000000   0.000000   0.000000   0.000000   0.000000
    29  N    0.000000   0.000000   0.000000   0.000000   0.000000   0.000000
    30  C    0.000000   0.000000   0.000002   0.000000   0.000461  -0.000010
    31  O   -0.000001   0.000000   0.014295  -0.001319  -0.065099   0.000753
    32  F    0.000676  -0.005378  -0.022330  -0.000014   0.242116  -0.039134
    33  O    0.000000   0.000001   0.147449  -0.053393  -0.035245   0.000455
    34  H    0.008368  -0.000048  -0.000028  -0.000004   0.000002   0.000000
    35  H    0.000000   0.000000   0.001047  -0.000006   0.001496   0.015362
    36  H    0.000000   0.000000   0.000000   0.000000  -0.000006  -0.000021
    37  H    0.000000   0.000000   0.000000   0.000000   0.000000   0.000000
    38  H    0.000000   0.000000  -0.000010   0.000001   0.000310  -0.000002
              19         20         21         22         23         24
     1  F   -0.000001   0.000000   0.000000   0.000000   0.000000   0.000000
     2  C   -0.000106  -0.000002   0.000000   0.000000   0.000000   0.000000
     3  F    0.000002   0.000000   0.000000   0.000000   0.000000   0.000000
     4  C   -0.000149   0.000001   0.000000   0.000000   0.000000   0.000000
     5  F    0.000000   0.000000   0.000000   0.000000   0.000000   0.000000
     6  F    0.000000   0.000000   0.000000   0.000000   0.000000   0.000000
     7  C    0.003818  -0.000059   0.000001   0.000000   0.000000   0.000000
     8  F    0.000077   0.000000   0.000000   0.000000   0.000000   0.000000
     9  C    0.000141  -0.000001   0.000000   0.000000   0.000000   0.000000
    10  F    0.000000   0.000000   0.000000   0.000000   0.000000   0.000000
    11  C    0.000029   0.000000   0.000000   0.000000   0.000000   0.000000
    12  O    0.000000   0.000000   0.000000   0.000000   0.000000   0.000000
    13  O   -0.000003   0.000000   0.000000   0.000000   0.000000   0.000000
    14  F    0.000073   0.000000   0.000000   0.000000   0.000000   0.000000
    15  C   -0.052863   0.004095  -0.000113  -0.000001   0.000000   0.000000
    16  F   -0.000687   0.000020   0.000001   0.000000   0.000000   0.000000
    17  C    0.269518  -0.074619   0.004051  -0.000368   0.000000   0.000000
    18  F   -0.031603  -0.002885   0.000389  -0.000045   0.000000   0.000000
    19  C    4.481690   0.242565  -0.023836   0.005750  -0.000107   0.000001
    20  N    0.242565   7.141899   0.222523  -0.052308   0.003986  -0.000173
    21  C   -0.023836   0.222523   4.590587   0.491745  -0.007856   0.003113
    22  C    0.005750  -0.052308   0.491745   4.960261   0.532745  -0.033966
    23  C   -0.000107   0.003986  -0.007856   0.532745   4.855703   0.202946
    24  C    0.000001  -0.000173   0.003113  -0.033966   0.202946   4.719300
    25  N    0.000000   0.000000  -0.000100  -0.000127  -0.095346   0.919123
    26  C    0.000001   0.000898  -0.046660  -0.048746   0.518439  -0.035014
    27  C    0.000294   0.003175  -0.010220  -0.038328  -0.014486   0.003582
    28  C    0.000000  -0.000150   0.003161   0.001750   0.003802  -0.000400
    29  N    0.000000   0.000000  -0.000126   0.000016  -0.000103  -0.000002
    30  C   -0.003685  -0.052127   0.527551  -0.068547  -0.038407   0.001642
    31  O    0.555361  -0.084107  -0.002634   0.000251  -0.000004   0.000000
    32  F   -0.025490  -0.001538  -0.000025  -0.000001   0.000000   0.000000
    33  O    0.002625  -0.000074   0.000001   0.000000   0.000000   0.000000
    34  H    0.000000   0.000000   0.000000   0.000000   0.000000   0.000000
    35  H   -0.033333   0.340141  -0.022420  -0.006004   0.000037   0.000006
    36  H    0.000259  -0.007299  -0.039610   0.368907  -0.029244  -0.005473
    37  H    0.000000   0.000004   0.000144   0.004610  -0.035668  -0.005226
    38  H    0.001739  -0.009615  -0.025944   0.004856  -0.000068   0.000005
              25         26         27         28         29         30
     1  F    0.000000   0.000000   0.000000   0.000000   0.000000   0.000000
     2  C    0.000000   0.000000   0.000000   0.000000   0.000000   0.000000
     3  F    0.000000   0.000000   0.000000   0.000000   0.000000   0.000000
     4  C    0.000000   0.000000   0.000000   0.000000   0.000000   0.000000
     5  F    0.000000   0.000000   0.000000   0.000000   0.000000   0.000000
     6  F    0.000000   0.000000   0.000000   0.000000   0.000000   0.000000
     7  C    0.000000   0.000000   0.000000   0.000000   0.000000   0.000000
     8  F    0.000000   0.000000   0.000000   0.000000   0.000000   0.000000
     9  C    0.000000   0.000000   0.000000   0.000000   0.000000   0.000000
    10  F    0.000000   0.000000   0.000000   0.000000   0.000000   0.000000
    11  C    0.000000   0.000000   0.000000   0.000000   0.000000   0.000000
    12  O    0.000000   0.000000   0.000000   0.000000   0.000000   0.000000
    13  O    0.000000   0.000000   0.000000   0.000000   0.000000   0.000000
    14  F    0.000000   0.000000   0.000000   0.000000   0.000000   0.000000
    15  C    0.000000   0.000000   0.000000   0.000000   0.000000   0.000002
    16  F    0.000000   0.000000   0.000000   0.000000   0.000000   0.000000
    17  C    0.000000   0.000000   0.000005   0.000000   0.000000   0.000461
    18  F    0.000000   0.000000   0.000000   0.000000   0.000000  -0.000010
    19  C    0.000000   0.000001   0.000294   0.000000   0.000000  -0.003685
    20  N    0.000000   0.000898   0.003175  -0.000150   0.000000  -0.052127
    21  C   -0.000100  -0.046660  -0.010220   0.003161  -0.000126   0.527551
    22  C   -0.000127  -0.048746  -0.038328   0.001750   0.000016  -0.068547
    23  C   -0.095346   0.518439  -0.014486   0.003802  -0.000103  -0.038407
    24  C    0.919123  -0.035014   0.003582  -0.000400  -0.000002   0.001642
    25  N    6.630631   0.000153  -0.000116  -0.000002   0.000000   0.000016
    26  C    0.000153   4.865022   0.516772  -0.037569   0.000055  -0.043432
    27  C   -0.000116   0.516772   4.915647   0.202587  -0.095183   0.496416
    28  C   -0.000002  -0.037569   0.202587   4.713416   0.917890  -0.030593
    29  N    0.000000   0.000055  -0.095183   0.917890   6.631659  -0.000274
    30  C    0.000016  -0.043432   0.496416  -0.030593  -0.000274   4.925976
    31  O    0.000000   0.000002   0.000973  -0.000030   0.000000  -0.006763
    32  F    0.000000   0.000000   0.000000   0.000000   0.000000  -0.000005
    33  O    0.000000   0.000000   0.000000   0.000000   0.000000  -0.000001
    34  H    0.000000   0.000000   0.000000   0.000000   0.000000   0.000000
    35  H    0.000000  -0.000033   0.000018   0.000002   0.000000   0.003799
    36  H    0.000672   0.004894   0.000069   0.000003   0.000000   0.004892
    37  H    0.000500   0.378738  -0.035878  -0.004931   0.000559   0.004282
    38  H    0.000000   0.004854  -0.035754  -0.006016   0.000627   0.363676
              31         32         33         34         35         36
     1  F    0.000000   0.000000  -0.041017   0.000000   0.000000   0.000000
     2  C    0.000116   0.000015   0.186871  -0.000003   0.000000   0.000000
     3  F    0.000000   0.000000  -0.050857   0.000000   0.000000   0.000000
     4  C   -0.000018   0.000029  -0.045001  -0.000131   0.000000   0.000000
     5  F    0.000000   0.000000  -0.001367   0.000242   0.000000   0.000000
     6  F    0.000000   0.000000   0.000748   0.000002   0.000000   0.000000
     7  C    0.000150  -0.003720  -0.012781  -0.000222  -0.000020   0.000000
     8  F    0.000000  -0.000219  -0.002734   0.000000   0.000003   0.000000
     9  C   -0.000006   0.009878   0.002702   0.006804  -0.000001   0.000000
    10  F    0.000000   0.000000  -0.000005  -0.000124   0.000000   0.000000
    11  C    0.000004  -0.001620  -0.000095  -0.011842   0.000000   0.000000
    12  O    0.000000   0.000001   0.000000   0.282421   0.000000   0.000000
    13  O   -0.000001   0.000676   0.000000   0.008368   0.000000   0.000000
    14  F    0.000000  -0.005378   0.000001  -0.000048   0.000000   0.000000
    15  C    0.014295  -0.022330   0.147449  -0.000028   0.001047   0.000000
    16  F   -0.001319  -0.000014  -0.053393  -0.000004  -0.000006   0.000000
    17  C   -0.065099   0.242116  -0.035245   0.000002   0.001496  -0.000006
    18  F    0.000753  -0.039134   0.000455   0.000000   0.015362  -0.000021
    19  C    0.555361  -0.025490   0.002625   0.000000  -0.033333   0.000259
    20  N   -0.084107  -0.001538  -0.000074   0.000000   0.340141  -0.007299
    21  C   -0.002634  -0.000025   0.000001   0.000000  -0.022420  -0.039610
    22  C    0.000251  -0.000001   0.000000   0.000000  -0.006004   0.368907
    23  C   -0.000004   0.000000   0.000000   0.000000   0.000037  -0.029244
    24  C    0.000000   0.000000   0.000000   0.000000   0.000006  -0.005473
    25  N    0.000000   0.000000   0.000000   0.000000   0.000000   0.000672
    26  C    0.000002   0.000000   0.000000   0.000000  -0.000033   0.004894
    27  C    0.000973   0.000000   0.000000   0.000000   0.000018   0.000069
    28  C   -0.000030   0.000000   0.000000   0.000000   0.000002   0.000003
    29  N    0.000000   0.000000   0.000000   0.000000   0.000000   0.000000
    30  C   -0.006763  -0.000005  -0.000001   0.000000   0.003799   0.004892
    31  O    8.037954   0.000164  -0.001586   0.000000   0.002372   0.000002
    32  F    0.000164   9.104535   0.000600   0.000000   0.001130  -0.000001
    33  O   -0.001586   0.000600   8.418880   0.000000  -0.000023   0.000000
    34  H    0.000000   0.000000   0.000000   0.351982   0.000000   0.000000
    35  H    0.002372   0.001130  -0.000023   0.000000   0.386974   0.004478
    36  H    0.000002  -0.000001   0.000000   0.000000   0.004478   0.552526
    37  H    0.000000   0.000000   0.000000   0.000000   0.000000  -0.000117
    38  H    0.020225  -0.000002   0.000000   0.000000  -0.000154  -0.000095
              37         38
     1  F    0.000000   0.000000
     2  C    0.000000   0.000000
     3  F    0.000000   0.000000
     4  C    0.000000   0.000000
     5  F    0.000000   0.000000
     6  F    0.000000   0.000000
     7  C    0.000000   0.000000
     8  F    0.000000   0.000000
     9  C    0.000000   0.000000
    10  F    0.000000   0.000000
    11  C    0.000000   0.000000
    12  O    0.000000   0.000000
    13  O    0.000000   0.000000
    14  F    0.000000   0.000000
    15  C    0.000000  -0.000010
    16  F    0.000000   0.000001
    17  C    0.000000   0.000310
    18  F    0.000000  -0.000002
    19  C    0.000000   0.001739
    20  N    0.000004  -0.009615
    21  C    0.000144  -0.025944
    22  C    0.004610   0.004856
    23  C   -0.035668  -0.000068
    24  C   -0.005226   0.000005
    25  N    0.000500   0.000000
    26  C    0.378738   0.004854
    27  C   -0.035878  -0.035754
    28  C   -0.004931  -0.006016
    29  N    0.000559   0.000627
    30  C    0.004282   0.363676
    31  O    0.000000   0.020225
    32  F    0.000000  -0.000002
    33  O    0.000000   0.000000
    34  H    0.000000   0.000000
    35  H    0.000000  -0.000154
    36  H   -0.000117  -0.000095
    37  H    0.536442  -0.000100
    38  H   -0.000100   0.504412
 Mulliken charges:
               1
     1  F   -0.244222
     2  C    0.782851
     3  F   -0.251129
     4  C    0.526150
     5  F   -0.257819
     6  F   -0.250459
     7  C    0.167135
     8  F   -0.292552
     9  C    0.617275
    10  F   -0.274415
    11  C    0.521873
    12  O   -0.473528
    13  O   -0.444415
    14  F   -0.270596
    15  C    0.498763
    16  F   -0.256854
    17  C    0.544014
    18  F   -0.277061
    19  C    0.607921
    20  N   -0.674349
    21  C    0.336274
    22  C   -0.122449
    23  C    0.103632
    24  C    0.230537
    25  N   -0.455405
    26  C   -0.078375
    27  C    0.090426
    28  C    0.237079
    29  N   -0.455118
    30  C   -0.084872
    31  O   -0.471055
    32  F   -0.259665
    33  O   -0.516155
    34  H    0.362580
    35  H    0.305125
    36  H    0.145161
    37  H    0.156642
    38  H    0.177052
 Sum of Mulliken charges =   0.00000
 Mulliken charges with hydrogens summed into heavy atoms:
               1
     1  F   -0.244222
     2  C    0.782851
     3  F   -0.251129
     4  C    0.526150
     5  F   -0.257819
     6  F   -0.250459
     7  C    0.167135
     8  F   -0.292552
     9  C    0.617275
    10  F   -0.274415
    11  C    0.521873
    12  O   -0.110948
    13  O   -0.444415
    14  F   -0.270596
    15  C    0.498763
    16  F   -0.256854
    17  C    0.544014
    18  F   -0.277061
    19  C    0.607921
    20  N   -0.369224
    21  C    0.336274
    22  C    0.022712
    23  C    0.103632
    24  C    0.230537
    25  N   -0.455405
    26  C    0.078268
    27  C    0.090426
    28  C    0.237079
    29  N   -0.455118
    30  C    0.092180
    31  O   -0.471055
    32  F   -0.259665
    33  O   -0.516155
 Electronic spatial extent (au):  <R**2>=          17009.9751
 Charge=              0.0000 electrons
 Dipole moment (field-independent basis, Debye):
    X=             -4.7701    Y=             -2.0171    Z=              0.5149  Tot=              5.2046
 Quadrupole moment (field-independent basis, Debye-Ang):
   XX=           -203.2044   YY=           -198.2752   ZZ=           -182.6183
   XY=             -5.4022   XZ=             13.4867   YZ=              8.0794
 Traceless Quadrupole moment (field-independent basis, Debye-Ang):
   XX=             -8.5051   YY=             -3.5759   ZZ=             12.0810
   XY=             -5.4022   XZ=             13.4867   YZ=              8.0794
 Octapole moment (field-independent basis, Debye-Ang**2):
  XXX=           -276.1313  YYY=            -42.8903  ZZZ=             30.0780  XYY=           -109.8789
  XXY=             63.2899  XXZ=            -56.4277  XZZ=            -35.2835  YZZ=            -17.7395
  YYZ=             29.6471  XYZ=             78.4012
 Hexadecapole moment (field-independent basis, Debye-Ang**3):
 XXXX=         -18577.9171 YYYY=          -2710.0176 ZZZZ=          -1799.0326 XXXY=            888.6123
 XXXZ=            806.9311 YYYX=            452.8330 YYYZ=            163.0566 ZZZX=            652.7779
 ZZZY=             44.1732 XXYY=          -4195.5512 XXZZ=          -3070.0839 YYZZ=           -780.6424
 XXYZ=            439.4193 YYXZ=            255.9981 ZZXY=             15.9062
 N-N= 3.815363004070D+03 E-N=-1.251652969234D+04  KE= 2.059720150418D+03
 No NMR shielding tensors so no spin-rotation constants.
 Leave Link  601 at Mon Feb  3 21:57:16 2025, MaxMem=  5368709120 cpu:         2.6
 (Enter /home/k0335/k033513/app/g09/l9999.exe)
 1\1\GINC-C15U05N1\SP\RCAM-B3LYP\6-31G(d,p)\C16H5F10N3O4\K033513\03-Feb
 -2025\0\\#p CAM-B3LYP/6-31G(d,p) SCRF=(PCM,Solvent=Generic,Read) NoSym
 m out=wfn\\Title APN2_neu\\0,1\F,0,-3.049251,3.125452,1.795696\C,0,-2.
 891357,1.790674,1.721386\F,0,-2.780529,1.322715,2.985746\C,0,-3.995743
 ,1.088675,0.950795\F,0,-4.337513,1.793428,-0.154818\F,0,-5.120993,0.88
 5461,1.655548\C,0,-3.269238,-0.166273,0.583292\F,0,-3.051645,-0.881493
 ,1.738956\C,0,-4.018043,-1.056284,-0.374862\F,0,-5.197544,-1.420832,0.
 219358\C,0,-4.261623,-0.456207,-1.758729\O,0,-5.472708,0.120126,-1.904
 33\O,0,-3.470097,-0.456116,-2.689295\F,0,-3.324153,-2.230815,-0.48862\
 C,0,-1.944659,0.439843,0.138468\F,0,-2.130679,1.084283,-1.041553\C,0,-
 0.795118,-0.563967,0.018717\F,0,-0.664009,-1.2652,1.18627\C,0,0.543894
 ,0.105337,-0.33943\N,0,1.630081,-0.707979,-0.007578\C,0,3.000048,-0.44
 7787,-0.216729\C,0,3.906337,-1.421422,0.223938\C,0,5.286221,-1.244974,
 0.055981\C,0,6.197444,-2.252589,0.513937\N,0,6.928149,-3.072249,0.8874
 6\C,0,5.770389,-0.0878,-0.557152\C,0,4.874118,0.88879,-1.000593\C,0,5.
 368949,2.078296,-1.631305\N,0,5.786413,3.034242,-2.138898\C,0,3.494164
 ,0.706707,-0.829728\O,0,0.623942,1.194127,-0.898665\F,0,-1.104457,-1.5
 02644,-0.920382\O,0,-1.648646,1.492189,1.084652\H,0,-5.496933,0.456405
 ,-2.826957\H,0,1.397649,-1.583464,0.456867\H,0,3.546016,-2.330587,0.70
 4033\H,0,6.842999,0.054321,-0.690318\H,0,2.828125,1.487612,-1.188646\\
 Version=ES64L-G09RevD.01\HF=-2075.5207564\RMSD=6.352e-09\Dipole=-1.876
 6853,-0.7935996,0.2025671\Quadrupole=-6.3233571,-2.6585676,8.9819247,-
 4.0164268,10.0270607,6.0068394\PG=C01 [X(C16H5F10N3O4)]\\@

 Writing a WFN file to "cytop/APN2/APN2_neu.wfn"


 AND HERE I AM, FOR ALL MY LORE,
 THE WRETCHED FOOL I WAS BEFORE.
 CALLED MASTER OF ARTS, AND DOCTOR TO BOOT,
 FOR TEN YEARS ALMOST I CONFUTE
 AND UP AND DOWN, WHEREVER IT GOES
 I DRAG MY STUDENTS BY THE NOSE --
 AND SEE THAT FOR ALL OUR SCIENCE AND ART
 WE CAN KNOW NOTHING.  IT BURNS MY HEART.

                                       -- FAUST
 Job cpu time:       0 days  0 hours 15 minutes 41.0 seconds.
 File lengths (MBytes):  RWF=    321 Int=      0 D2E=      0 Chk=     12 Scr=      1
 Normal termination of Gaussian 09 at Mon Feb  3 21:57:17 2025.
