 Entering Gaussian System, Link 0=g09
 Initial command:
 /home/k0335/k033513/app/g09/l1.exe "/home/k0335/k033513/app/g09/scratch/Gau-3857619.inp" -scrdir="/home/k0335/k033513/app/g09/scratch/"
 Default is to use a total of  36 processors:
                               36 via shared-memory
                                1 via Linda
 Entering Link 1 = /home/k0335/k033513/app/g09/l1.exe PID=   3857620.
  
 Copyright (c) 1988,1990,1992,1993,1995,1998,2003,2009,2013,
            Gaussian, Inc.  All Rights Reserved.
  
 This is part of the Gaussian(R) 09 program.  It is based on
 the Gaussian(R) 03 system (copyright 2003, Gaussian, Inc.),
 the Gaussian(R) 98 system (copyright 1998, Gaussian, Inc.),
 the Gaussian(R) 94 system (copyright 1995, Gaussian, Inc.),
 the Gaussian 92(TM) system (copyright 1992, Gaussian, Inc.),
 the Gaussian 90(TM) system (copyright 1990, Gaussian, Inc.),
 the Gaussian 88(TM) system (copyright 1988, Gaussian, Inc.),
 the Gaussian 86(TM) system (copyright 1986, Carnegie Mellon
 University), and the Gaussian 82(TM) system (copyright 1983,
 Carnegie Mellon University). Gaussian is a federally registered
 trademark of Gaussian, Inc.
  
 This software contains proprietary and confidential information,
 including trade secrets, belonging to Gaussian, Inc.
  
 This software is provided under written license and may be
 used, copied, transmitted, or stored only in accord with that
 written license.
  
 The following legend is applicable only to US Government
 contracts under FAR:
  
                    RESTRICTED RIGHTS LEGEND
  
 Use, reproduction and disclosure by the US Government is
 subject to restrictions as set forth in subparagraphs (a)
 and (c) of the Commercial Computer Software - Restricted
 Rights clause in FAR 52.227-19.
  
 Gaussian, Inc.
 340 Quinnipiac St., Bldg. 40, Wallingford CT 06492
  
  
 ---------------------------------------------------------------
 Warning -- This program may not be used in any manner that
 competes with the business of Gaussian, Inc. or will provide
 assistance to any competitor of Gaussian, Inc.  The licensee
 of this program is prohibited from giving any competitor of
 Gaussian, Inc. access to this program.  By using this program,
 the user acknowledges that Gaussian, Inc. is engaged in the
 business of creating and licensing software in the field of
 computational chemistry and represents and warrants to the
 licensee that it is not a competitor of Gaussian, Inc. and that
 it will not use this program in any manner prohibited above.
 ---------------------------------------------------------------
  

 Cite this work as:
 Gaussian 09, Revision D.01,
 M. J. Frisch, G. W. Trucks, H. B. Schlegel, G. E. Scuseria, 
 M. A. Robb, J. R. Cheeseman, G. Scalmani, V. Barone, B. Mennucci, 
 G. A. Petersson, H. Nakatsuji, M. Caricato, X. Li, H. P. Hratchian, 
 A. F. Izmaylov, J. Bloino, G. Zheng, J. L. Sonnenberg, M. Hada, 
 M. Ehara, K. Toyota, R. Fukuda, J. Hasegawa, M. Ishida, T. Nakajima, 
 Y. Honda, O. Kitao, H. Nakai, T. Vreven, J. A. Montgomery, Jr., 
 J. E. Peralta, F. Ogliaro, M. Bearpark, J. J. Heyd, E. Brothers, 
 K. N. Kudin, V. N. Staroverov, T. Keith, R. Kobayashi, J. Normand, 
 K. Raghavachari, A. Rendell, J. C. Burant, S. S. Iyengar, J. Tomasi, 
 M. Cossi, N. Rega, J. M. Millam, M. Klene, J. E. Knox, J. B. Cross, 
 V. Bakken, C. Adamo, J. Jaramillo, R. Gomperts, R. E. Stratmann, 
 O. Yazyev, A. J. Austin, R. Cammi, C. Pomelli, J. W. Ochterski, 
 R. L. Martin, K. Morokuma, V. G. Zakrzewski, G. A. Voth, 
 P. Salvador, J. J. Dannenberg, S. Dapprich, A. D. Daniels, 
 O. Farkas, J. B. Foresman, J. V. Ortiz, J. Cioslowski, 
 and D. J. Fox, Gaussian, Inc., Wallingford CT, 2013.
 
 ******************************************
 Gaussian 09:  ES64L-G09RevD.01 24-Apr-2013
                 3-Feb-2025 
 ******************************************
 %nprocshared=24
 Will use up to   24 processors via shared memory.
 %mem=40GB
 %rwf=cytop/S1/S1_neu.rwf
 %nosave
 %chk=cytop/S1/S1_neu.chk
 ----------------------------------------------------------------------
 #p CAM-B3LYP/6-31G(d,p) SCRF=(PCM,Solvent=Generic,Read) NoSymm out=wfn
 ----------------------------------------------------------------------
 1/38=1,40=2/1;
 2/12=2,15=1,17=6,18=5,40=1/2;
 3/5=1,6=6,7=101,11=2,16=1,25=1,30=1,70=2203,72=-2,74=-40/1,2,3;
 4//1;
 5/5=2,38=5/2;
 6/7=2,8=2,9=2,10=2,28=1/1;
 99/5=1,6=100,9=1/99;
 Leave Link    1 at Mon Feb  3 21:44:15 2025, MaxMem=  5368709120 cpu:         1.0
 (Enter /home/k0335/k033513/app/g09/l101.exe)
 ------------
 Title S1_neu
 ------------
 Symbolic Z-matrix:
 Charge =  0 Multiplicity = 1
 F                    -0.07835  -0.42538  -1.40655 
 C                     0.47986   0.3314   -0.4232 
 C                     1.83444  -0.21991  -0.02845 
 F                     2.78019   0.25712  -0.89509 
 C                     1.91857  -1.74241  -0.06805 
 F                     1.01081  -2.31967   0.74393 
 F                     1.69265  -2.2211   -1.31294 
 F                     3.13788  -2.18632   0.31379 
 F                     2.19099   0.25062   1.19412 
 C                    -0.55588   0.60878   0.67276 
 O                    -1.50194   1.54774   0.11746 
 C                    -0.84252   2.14375  -0.99654 
 F                    -1.04327   3.47325  -0.98465 
 F                    -1.46      1.64427  -2.09215 
 C                     0.61696   1.73748  -0.95044 
 F                     1.32345   2.51215  -0.09348 
 F                     1.23169   1.80357  -2.14662 
 C                    -1.2879   -0.53244   1.37966 
 F                    -0.39164  -1.22321   2.13719 
 C                    -2.05431  -1.46371   0.45422 
 F                    -2.75936  -2.38987   1.14424 
 F                    -1.21984  -2.14184  -0.36592 
 F                    -2.92569  -0.79486  -0.3324 
 F                    -2.16076   0.01677   2.28333 
 F                     0.06398   1.33381   1.65579 
 
 NAtoms=     25 NQM=       25 NQMF=       0 NMMI=      0 NMMIF=      0
                NMic=       0 NMicF=      0.
                    Isotopes and Nuclear Properties:
 (Nuclear quadrupole moments (NQMom) in fm**2, nuclear magnetic moments (NMagM)
  in nuclear magnetons)

  Atom         1           2           3           4           5           6           7           8           9          10
 IAtWgt=          19          12          12          19          12          19          19          19          19          12
 AtmWgt=  18.9984033  12.0000000  12.0000000  18.9984033  12.0000000  18.9984033  18.9984033  18.9984033  18.9984033  12.0000000
 NucSpn=           1           0           0           1           0           1           1           1           1           0
 AtZEff=   0.0000000   0.0000000   0.0000000   0.0000000   0.0000000   0.0000000   0.0000000   0.0000000   0.0000000   0.0000000
 NQMom=    0.0000000   0.0000000   0.0000000   0.0000000   0.0000000   0.0000000   0.0000000   0.0000000   0.0000000   0.0000000
 NMagM=    2.6288670   0.0000000   0.0000000   2.6288670   0.0000000   2.6288670   2.6288670   2.6288670   2.6288670   0.0000000
 AtZNuc=   9.0000000   6.0000000   6.0000000   9.0000000   6.0000000   9.0000000   9.0000000   9.0000000   9.0000000   6.0000000

  Atom        11          12          13          14          15          16          17          18          19          20
 IAtWgt=          16          12          19          19          12          19          19          12          19          12
 AtmWgt=  15.9949146  12.0000000  18.9984033  18.9984033  12.0000000  18.9984033  18.9984033  12.0000000  18.9984033  12.0000000
 NucSpn=           0           0           1           1           0           1           1           0           1           0
 AtZEff=   0.0000000   0.0000000   0.0000000   0.0000000   0.0000000   0.0000000   0.0000000   0.0000000   0.0000000   0.0000000
 NQMom=    0.0000000   0.0000000   0.0000000   0.0000000   0.0000000   0.0000000   0.0000000   0.0000000   0.0000000   0.0000000
 NMagM=    0.0000000   0.0000000   2.6288670   2.6288670   0.0000000   2.6288670   2.6288670   0.0000000   2.6288670   0.0000000
 AtZNuc=   8.0000000   6.0000000   9.0000000   9.0000000   6.0000000   9.0000000   9.0000000   6.0000000   9.0000000   6.0000000

  Atom        21          22          23          24          25
 IAtWgt=          19          19          19          19          19
 AtmWgt=  18.9984033  18.9984033  18.9984033  18.9984033  18.9984033
 NucSpn=           1           1           1           1           1
 AtZEff=   0.0000000   0.0000000   0.0000000   0.0000000   0.0000000
 NQMom=    0.0000000   0.0000000   0.0000000   0.0000000   0.0000000
 NMagM=    2.6288670   2.6288670   2.6288670   2.6288670   2.6288670
 AtZNuc=   9.0000000   9.0000000   9.0000000   9.0000000   9.0000000
 Leave Link  101 at Mon Feb  3 21:44:15 2025, MaxMem=  5368709120 cpu:         0.8
 (Enter /home/k0335/k033513/app/g09/l202.exe)
                          Input orientation:                          
 ---------------------------------------------------------------------
 Center     Atomic      Atomic             Coordinates (Angstroms)
 Number     Number       Type             X           Y           Z
 ---------------------------------------------------------------------
      1          9           0       -0.078351   -0.425379   -1.406549
      2          6           0        0.479864    0.331400   -0.423202
      3          6           0        1.834435   -0.219908   -0.028450
      4          9           0        2.780189    0.257120   -0.895093
      5          6           0        1.918568   -1.742408   -0.068047
      6          9           0        1.010807   -2.319672    0.743934
      7          9           0        1.692646   -2.221099   -1.312938
      8          9           0        3.137884   -2.186315    0.313791
      9          9           0        2.190986    0.250624    1.194115
     10          6           0       -0.555880    0.608783    0.672758
     11          8           0       -1.501938    1.547743    0.117455
     12          6           0       -0.842520    2.143750   -0.996543
     13          9           0       -1.043272    3.473247   -0.984650
     14          9           0       -1.459995    1.644274   -2.092146
     15          6           0        0.616957    1.737477   -0.950443
     16          9           0        1.323447    2.512147   -0.093476
     17          9           0        1.231686    1.803567   -2.146622
     18          6           0       -1.287896   -0.532436    1.379659
     19          9           0       -0.391636   -1.223214    2.137187
     20          6           0       -2.054310   -1.463709    0.454215
     21          9           0       -2.759360   -2.389872    1.144236
     22          9           0       -1.219836   -2.141838   -0.365917
     23          9           0       -2.925688   -0.794859   -0.332400
     24          9           0       -2.160762    0.016770    2.283334
     25          9           0        0.063977    1.333807    1.655792
 ---------------------------------------------------------------------
                    Distance matrix (angstroms):
                    1          2          3          4          5
     1  F    0.000000
     2  C    1.360621   0.000000
     3  C    2.366458   1.514804   0.000000
     4  F    2.983059   2.349403   1.368604   0.000000
     5  C    2.741138   2.548859   1.525337   2.329057   0.000000
     6  F    3.065810   2.944875   2.384103   3.529445   1.347804
     7  F    2.523847   2.962722   2.382179   2.738414   1.352753
     8  F    4.050263   3.734584   2.383876   2.749495   1.352622
     9  F    3.517147   2.355881   1.357643   2.170712   2.374751
    10  C    2.370874   1.533243   2.625267   3.702861   3.492819
    11  O    2.870958   2.387329   3.778527   4.585583   4.749670
    12  C    2.711546   2.315606   3.700023   4.085791   4.856741
    13  F    4.038361   3.536435   4.778589   4.997034   6.067595
    14  F    2.581172   2.876120   4.311297   4.619122   5.194351
    15  C    2.317203   1.507922   2.482676   2.621849   3.818693
    16  F    3.509738   2.361357   2.780191   2.801755   4.296051
    17  F    2.689257   2.388030   2.990721   2.521048   4.167280
    18  C    3.039312   2.668613   3.439389   4.727284   3.720389
    19  F    3.645923   3.119604   3.263740   4.631046   3.235686
    20  C    2.906026   3.227122   4.111246   5.306059   4.016739
    21  F    4.189695   4.511624   5.214105   6.469315   4.875638
    22  F    2.309141   3.001528   3.624399   4.694169   3.177712
    23  F    3.065557   3.588104   4.804344   5.829264   4.943131
    24  F    4.259949   3.794369   4.621900   5.879895   5.026394
    25  F    3.534533   2.345207   2.895725   3.878669   3.984247
                    6          7          8          9         10
     6  F    0.000000
     7  F    2.169180   0.000000
     8  F    2.174227   2.176274   0.000000
     9  F    2.863897   3.555710   2.758670   0.000000
    10  C    3.321961   4.123965   4.646001   2.818752   0.000000
    11  O    4.654381   5.143497   5.959000   4.059483   1.443964
    12  C    5.136752   5.057576   6.025782   4.193455   2.285794
    13  F    6.384759   6.326025   7.155324   5.058927   3.345102
    14  F    5.464529   5.048507   6.449995   5.106019   3.087776
    15  C    4.414350   4.118110   4.832132   3.047528   2.298756
    16  F    4.913804   4.901736   5.053078   2.743173   2.782405
    17  F    5.040357   4.135873   5.060275   3.806890   3.545674
    18  C    2.980335   4.357211   4.843441   3.570746   1.529031
    19  F    2.260580   4.152514   4.087768   3.119538   2.351115
    20  C    3.195552   4.211431   5.244116   4.637772   2.566764
    21  F    3.792009   5.087882   5.958906   5.610760   3.750940
    22  F    2.497832   3.063606   4.410635   4.448739   3.014233
    23  F    4.356552   4.932000   6.254648   5.440922   2.931986
    24  F    4.229369   5.726254   6.066987   4.492082   2.349485
    25  F    3.882767   4.909509   4.862214   2.431172   1.369758
                   11         12         13         14         15
    11  O    0.000000
    12  C    1.425148   0.000000
    13  F    2.265519   1.344621   0.000000
    14  F    2.212106   1.353181   2.178382   0.000000
    15  C    2.380362   1.515670   2.402172   2.371898   0.000000
    16  F    2.992886   2.375428   2.705414   3.534888   1.354117
    17  F    3.558678   2.395983   3.051794   2.696941   1.346515
    18  C    2.442564   3.606476   4.657821   4.101355   3.769661
    19  F    3.604205   4.621689   5.676904   5.220262   4.395044
    20  C    3.080157   4.072701   5.240808   4.061616   4.399582
    21  F    4.259132   5.367582   6.469411   5.332621   5.729067
    22  F    3.731788   4.348140   5.651830   4.167996   4.331808
    23  F    2.777988   3.662799   4.710164   3.345793   4.398299
    24  F    2.732940   4.125457   4.886280   4.720664   4.597159
    25  F    2.205525   2.917640   3.574232   4.057822   2.694661
                   16         17         18         19         20
    16  F    0.000000
    17  F    2.173917   0.000000
    18  C    4.273023   4.923399   0.000000
    19  F    4.676568   5.490683   1.361729   0.000000
    20  C    5.245630   5.313870   1.520232   2.377965   0.000000
    21  F    6.498541   6.659063   2.381323   2.820135   1.353145
    22  F    5.310564   4.974645   2.375256   2.792009   1.352340
    23  F    5.389668   5.227521   2.383773   3.564234   1.351082
    24  F    4.900596   5.858827   1.371186   2.165347   2.355595
    25  F    2.456560   4.005318   2.320921   2.641530   3.709046
                   21         22         23         24         25
    21  F    0.000000
    22  F    2.170764   0.000000
    23  F    2.179951   2.173800   0.000000
    24  F    2.729064   3.544497   2.843575   0.000000
    25  F    4.700926   4.220852   4.173994   2.660425   0.000000
 Symmetry turned off by external request.
 Stoichiometry    C8F16O
 Framework group  C1[X(C8F16O)]
 Deg. of freedom    69
 Full point group                 C1      NOp   1
 Rotational constants (GHZ):      0.2835392      0.2760712      0.1917843
 Leave Link  202 at Mon Feb  3 21:44:16 2025, MaxMem=  5368709120 cpu:         0.1
 (Enter /home/k0335/k033513/app/g09/l301.exe)
 Standard basis: 6-31G(d,p) (6D, 7F)
 Ernie: Thresh=  0.10000D-02 Tol=  0.10000D-05 Strict=F.
   375 basis functions,   700 primitive gaussians,   375 cartesian basis functions
   100 alpha electrons      100 beta electrons
       nuclear repulsion energy      3174.5075319485 Hartrees.
 IExCor=20419 DFT=T Ex+Corr=CAM-B3LYP ExCW=0 ScaHFX=  1.000000
 ScaDFX=  1.000000  1.000000  1.000000  0.810000 ScalE2=  1.000000  1.000000
 IRadAn=      0 IRanWt=     -1 IRanGd=            0 ICorTp=0 IEmpDi=  4
  HFx wShort=  0.000000 wLong=  0.330000 cFull=  0.190000 cShort=  0.000000 cLong=  0.460000
  DFx wShort=  0.000000 wLong=  0.330000 cFull=  0.190000 cShort=  0.000000 cLong=  0.460000
 NAtoms=   25 NActive=   25 NUniq=   25 SFac= 1.00D+00 NAtFMM=   60 NAOKFM=F Big=F
 Integral buffers will be    131072 words long.
 Raffenetti 2 integral format.
 Two-electron integral symmetry is turned off.
 Using the following non-standard input for PCM:
 eps=2.05
 --- end of non-standard input.
 ------------------------------------------------------------------------------
 Polarizable Continuum Model (PCM)
 =================================
 Model                : PCM (using non-symmetric T matrix).
 Atomic radii         : UFF (Universal Force Field).
 Polarization charges : Total charges.
 Charge compensation  : None.
 Solution method      : On-the-fly selection.
 Cavity type          : Scaled VdW (van der Waals Surface) (Alpha=1.100).
 Cavity algorithm     : GePol (No added spheres)
                        Default sphere list used, NSphG=   25.
                        Lebedev-Laikov grids with approx.  5.0 points / Ang**2.
                        Smoothing algorithm: Karplus/York (Gamma=1.0000).
                        Polarization charges: spherical gaussians, with
                                              point-specific exponents (IZeta= 3).
                        Self-potential: point-specific (ISelfS= 7).
                        Self-field    : sphere-specific E.n sum rule (ISelfD= 2).
 Solvent              : Generic,
                        Eps                           =   2.050000
                        Eps(infinity)                 =   0.000000
                        RSolv                         =   0.000000 Ang.
                        Molar volume                  =   0.000000 cm**3/mol
                        Thermal expansion coefficient =   0.000000 K**-1
                        Absolute temperature          = 298.150000 K
                        Numeral density               =   0.000000 Ang**-3
                        Hydrogen bond acidity         =   0.000000
                        Hydrogen bond basicity        =   0.000000
                        Surface tension at interface  =   0.000000 (cal/mol)*Ang**-2
                        Carbon aromaticity            =   0.000000
                        Electronegative halogenicity  =   0.000000
 ------------------------------------------------------------------------------
 GePol: Number of generator spheres                  =      25
 GePol: Total number of spheres                      =      25
 GePol: Number of exposed spheres                    =      25 (100.00%)
 GePol: Number of points                             =    2216
 GePol: Average weight of points                     =       0.12
 GePol: Minimum weight of points                     =   0.28D-09
 GePol: Maximum weight of points                     =    0.20286
 GePol: Number of points with low weight             =      92
 GePol: Fraction of low-weight points (<1% of avg)   =       4.15%
 GePol: Cavity surface area                          =    275.282 Ang**2
 GePol: Cavity volume                                =    315.381 Ang**3
 Leave Link  301 at Mon Feb  3 21:44:16 2025, MaxMem=  5368709120 cpu:         0.8
 (Enter /home/k0335/k033513/app/g09/l302.exe)
 NPDir=0 NMtPBC=     1 NCelOv=     1 NCel=       1 NClECP=     1 NCelD=      1
         NCelK=      1 NCelE2=     1 NClLst=     1 CellRange=     0.0.
 One-electron integrals computed using PRISM.
 NBasis=   375 RedAO= T EigKep=  8.31D-04  NBF=   375
 NBsUse=   375 1.00D-06 EigRej= -1.00D+00 NBFU=   375
 Precomputing XC quadrature grid using
 IXCGrd= 4 IRadAn=           0 IRanWt=          -1 IRanGd=           0 AccXCQ= 0.00D+00.
 Generated NRdTot=       0 NPtTot=           0 NUsed=           0 NTot=          32
 NSgBfM=   372   372   372   372   372 MxSgAt=    25 MxSgA2=    25.
 Leave Link  302 at Mon Feb  3 21:44:16 2025, MaxMem=  5368709120 cpu:         5.3
 (Enter /home/k0335/k033513/app/g09/l303.exe)
 DipDrv:  MaxL=1.
 Leave Link  303 at Mon Feb  3 21:44:17 2025, MaxMem=  5368709120 cpu:         0.5
 (Enter /home/k0335/k033513/app/g09/l401.exe)
 ExpMin= 1.69D-01 ExpMax= 7.00D+03 ExpMxC= 1.05D+03 IAcc=1 IRadAn=         1 AccDes= 0.00D+00
 Harris functional with IExCor=20419 and IRadAn=       1 diagonalized for initial guess.
 HarFok:  IExCor=20419 AccDes= 0.00D+00 IRadAn=         1 IDoV= 1 UseB2=F ITyADJ=14
 ICtDFT=  3500011 ScaDFX=  1.000000  1.000000  1.000000  1.000000
 FoFCou: FMM=F IPFlag=           0 FMFlag=      100000 FMFlg1=           0
         NFxFlg=           0 DoJE=T BraDBF=F KetDBF=T FulRan=T
         wScrn=  0.000000 ICntrl=     500 IOpCl=  0 I1Cent=   200000004 NGrid=           0
         NMat0=    1 NMatS0=      1 NMatT0=    0 NMatD0=    1 NMtDS0=    0 NMtDT0=    0
 Symmetry not used in FoFCou.
 Harris En= -1919.90723759855    
 JPrj=0 DoOrth=F DoCkMO=F.
 Leave Link  401 at Mon Feb  3 21:44:17 2025, MaxMem=  5368709120 cpu:         6.2
 (Enter /home/k0335/k033513/app/g09/l502.exe)
 Closed shell SCF:
 Using DIIS extrapolation, IDIIS=  1040.
 Two-electron integral symmetry not used.
 Keep R1 ints in memory in canonical form, NReq=4997350725.
 IVT=      451725 IEndB=      451725 NGot=  5368709120 MDV=   397936896
 LenX=   397936896 LenY=   397795830
 Requested convergence on RMS density matrix=1.00D-08 within 128 cycles.
 Requested convergence on MAX density matrix=1.00D-06.
 Requested convergence on             energy=1.00D-06.
 No special actions if energy rises.
 FoFCou: FMM=F IPFlag=           0 FMFlag=           0 FMFlg1=           0
         NFxFlg=           0 DoJE=F BraDBF=F KetDBF=F FulRan=T
         wScrn=  0.000000 ICntrl=     600 IOpCl=  0 I1Cent=           0 NGrid=           0
         NMat0=    1 NMatS0=  70500 NMatT0=    0 NMatD0=    1 NMtDS0=    0 NMtDT0=    0
 Symmetry not used in FoFCou.

 Cycle   1  Pass 1  IDiag  1:
 Inv3:  Mode=1 IEnd=    14731968.
 Iteration    1 A*A^-1 deviation from unit magnitude is 4.22D-15 for   2190.
 Iteration    1 A*A^-1 deviation from orthogonality  is 2.08D-15 for   2188   1756.
 Iteration    1 A^-1*A deviation from unit magnitude is 4.44D-15 for   2179.
 Iteration    1 A^-1*A deviation from orthogonality  is 1.37D-15 for   2172    470.
 E= -1976.34018442615    
 DIIS: error= 4.70D-02 at cycle   1 NSaved=   1.
 NSaved= 1 IEnMin= 1 EnMin= -1976.34018442615     IErMin= 1 ErrMin= 4.70D-02
 ErrMax= 4.70D-02  0.00D+00 EMaxC= 1.00D-01 BMatC= 1.65D+00 BMatP= 1.65D+00
 IDIUse=3 WtCom= 5.30D-01 WtEn= 4.70D-01
 Coeff-Com:  0.100D+01
 Coeff-En:   0.100D+01
 Coeff:      0.100D+01
 Gap=     0.468 Goal=   None    Shift=    0.000
 GapD=    0.468 DampG=2.000 DampE=0.500 DampFc=1.0000 IDamp=-1.
 RMSDP=3.99D-03 MaxDP=1.90D-01              OVMax= 8.42D-02

 Cycle   2  Pass 1  IDiag  1:
 E= -1976.61469809962     Delta-E=       -0.274513673477 Rises=F Damp=F
 DIIS: error= 2.02D-02 at cycle   2 NSaved=   2.
 NSaved= 2 IEnMin= 2 EnMin= -1976.61469809962     IErMin= 2 ErrMin= 2.02D-02
 ErrMax= 2.02D-02  0.00D+00 EMaxC= 1.00D-01 BMatC= 6.32D-01 BMatP= 1.65D+00
 IDIUse=3 WtCom= 7.98D-01 WtEn= 2.02D-01
 Coeff-Com:  0.366D+00 0.634D+00
 Coeff-En:   0.315D+00 0.685D+00
 Coeff:      0.356D+00 0.644D+00
 Gap=     0.469 Goal=   None    Shift=    0.000
 RMSDP=1.72D-03 MaxDP=9.25D-02 DE=-2.75D-01 OVMax= 5.67D-02

 Cycle   3  Pass 1  IDiag  1:
 E= -1976.89670059065     Delta-E=       -0.282002491025 Rises=F Damp=F
 DIIS: error= 9.28D-03 at cycle   3 NSaved=   3.
 NSaved= 3 IEnMin= 3 EnMin= -1976.89670059065     IErMin= 3 ErrMin= 9.28D-03
 ErrMax= 9.28D-03  0.00D+00 EMaxC= 1.00D-01 BMatC= 1.01D-01 BMatP= 6.32D-01
 IDIUse=3 WtCom= 9.07D-01 WtEn= 9.28D-02
 Coeff-Com:  0.907D-01 0.318D+00 0.592D+00
 Coeff-En:   0.000D+00 0.875D-01 0.913D+00
 Coeff:      0.823D-01 0.296D+00 0.622D+00
 Gap=     0.465 Goal=   None    Shift=    0.000
 RMSDP=8.05D-04 MaxDP=4.43D-02 DE=-2.82D-01 OVMax= 3.03D-02

 Cycle   4  Pass 1  IDiag  1:
 E= -1976.95483636078     Delta-E=       -0.058135770129 Rises=F Damp=F
 DIIS: error= 3.06D-03 at cycle   4 NSaved=   4.
 NSaved= 4 IEnMin= 4 EnMin= -1976.95483636078     IErMin= 4 ErrMin= 3.06D-03
 ErrMax= 3.06D-03  0.00D+00 EMaxC= 1.00D-01 BMatC= 7.31D-03 BMatP= 1.01D-01
 IDIUse=3 WtCom= 9.69D-01 WtEn= 3.06D-02
 Coeff-Com:  0.107D-02 0.555D-01 0.275D+00 0.669D+00
 Coeff-En:   0.000D+00 0.000D+00 0.635D-02 0.994D+00
 Coeff:      0.104D-02 0.538D-01 0.267D+00 0.679D+00
 Gap=     0.455 Goal=   None    Shift=    0.000
 RMSDP=2.02D-04 MaxDP=8.73D-03 DE=-5.81D-02 OVMax= 7.57D-03

 Cycle   5  Pass 1  IDiag  1:
 E= -1976.96007497650     Delta-E=       -0.005238615728 Rises=F Damp=F
 DIIS: error= 2.01D-04 at cycle   5 NSaved=   5.
 NSaved= 5 IEnMin= 5 EnMin= -1976.96007497650     IErMin= 5 ErrMin= 2.01D-04
 ErrMax= 2.01D-04  0.00D+00 EMaxC= 1.00D-01 BMatC= 7.80D-05 BMatP= 7.31D-03
 IDIUse=3 WtCom= 9.98D-01 WtEn= 2.01D-03
 Coeff-Com: -0.584D-03 0.187D-01 0.102D+00 0.280D+00 0.599D+00
 Coeff-En:   0.000D+00 0.000D+00 0.000D+00 0.000D+00 0.100D+01
 Coeff:     -0.583D-03 0.186D-01 0.102D+00 0.280D+00 0.600D+00
 Gap=     0.455 Goal=   None    Shift=    0.000
 RMSDP=2.39D-05 MaxDP=1.08D-03 DE=-5.24D-03 OVMax= 8.43D-04

 Cycle   6  Pass 1  IDiag  1:
 E= -1976.96012260522     Delta-E=       -0.000047628715 Rises=F Damp=F
 DIIS: error= 7.42D-05 at cycle   6 NSaved=   6.
 NSaved= 6 IEnMin= 6 EnMin= -1976.96012260522     IErMin= 6 ErrMin= 7.42D-05
 ErrMax= 7.42D-05  0.00D+00 EMaxC= 1.00D-01 BMatC= 8.46D-06 BMatP= 7.80D-05
 IDIUse=1 WtCom= 1.00D+00 WtEn= 0.00D+00
 Coeff-Com: -0.344D-03-0.294D-02-0.989D-02-0.141D-01 0.243D+00 0.784D+00
 Coeff:     -0.344D-03-0.294D-02-0.989D-02-0.141D-01 0.243D+00 0.784D+00
 Gap=     0.456 Goal=   None    Shift=    0.000
 RMSDP=6.74D-06 MaxDP=3.20D-04 DE=-4.76D-05 OVMax= 2.71D-04

 Cycle   7  Pass 1  IDiag  1:
 E= -1976.96012863136     Delta-E=       -0.000006026142 Rises=F Damp=F
 DIIS: error= 8.57D-06 at cycle   7 NSaved=   7.
 NSaved= 7 IEnMin= 7 EnMin= -1976.96012863136     IErMin= 7 ErrMin= 8.57D-06
 ErrMax= 8.57D-06  0.00D+00 EMaxC= 1.00D-01 BMatC= 2.36D-07 BMatP= 8.46D-06
 IDIUse=1 WtCom= 1.00D+00 WtEn= 0.00D+00
 Coeff-Com: -0.729D-04-0.180D-02-0.774D-02-0.174D-01 0.499D-01 0.240D+00
 Coeff-Com:  0.737D+00
 Coeff:     -0.729D-04-0.180D-02-0.774D-02-0.174D-01 0.499D-01 0.240D+00
 Coeff:      0.737D+00
 Gap=     0.456 Goal=   None    Shift=    0.000
 RMSDP=1.63D-06 MaxDP=6.71D-05 DE=-6.03D-06 OVMax= 9.63D-05

 Cycle   8  Pass 1  IDiag  1:
 E= -1976.96012883234     Delta-E=       -0.000000200983 Rises=F Damp=F
 DIIS: error= 4.49D-06 at cycle   8 NSaved=   8.
 NSaved= 8 IEnMin= 8 EnMin= -1976.96012883234     IErMin= 8 ErrMin= 4.49D-06
 ErrMax= 4.49D-06  0.00D+00 EMaxC= 1.00D-01 BMatC= 2.98D-08 BMatP= 2.36D-07
 IDIUse=1 WtCom= 1.00D+00 WtEn= 0.00D+00
 Coeff-Com:  0.163D-05-0.500D-03-0.239D-02-0.620D-02-0.234D-02 0.255D-01
 Coeff-Com:  0.278D+00 0.708D+00
 Coeff:      0.163D-05-0.500D-03-0.239D-02-0.620D-02-0.234D-02 0.255D-01
 Coeff:      0.278D+00 0.708D+00
 Gap=     0.456 Goal=   None    Shift=    0.000
 RMSDP=5.42D-07 MaxDP=2.42D-05 DE=-2.01D-07 OVMax= 2.67D-05

 Cycle   9  Pass 1  IDiag  1:
 E= -1976.96012885737     Delta-E=       -0.000000025025 Rises=F Damp=F
 DIIS: error= 1.35D-06 at cycle   9 NSaved=   9.
 NSaved= 9 IEnMin= 9 EnMin= -1976.96012885737     IErMin= 9 ErrMin= 1.35D-06
 ErrMax= 1.35D-06  0.00D+00 EMaxC= 1.00D-01 BMatC= 3.87D-09 BMatP= 2.98D-08
 IDIUse=1 WtCom= 1.00D+00 WtEn= 0.00D+00
 Coeff-Com:  0.925D-05 0.101D-04-0.599D-04-0.482D-03-0.692D-02-0.184D-01
 Coeff-Com:  0.234D-01 0.292D+00 0.711D+00
 Coeff:      0.925D-05 0.101D-04-0.599D-04-0.482D-03-0.692D-02-0.184D-01
 Coeff:      0.234D-01 0.292D+00 0.711D+00
 Gap=     0.456 Goal=   None    Shift=    0.000
 RMSDP=1.97D-07 MaxDP=1.03D-05 DE=-2.50D-08 OVMax= 1.71D-05

 Cycle  10  Pass 1  IDiag  1:
 E= -1976.96012886030     Delta-E=       -0.000000002932 Rises=F Damp=F
 DIIS: error= 4.76D-07 at cycle  10 NSaved=  10.
 NSaved=10 IEnMin=10 EnMin= -1976.96012886030     IErMin=10 ErrMin= 4.76D-07
 ErrMax= 4.76D-07  0.00D+00 EMaxC= 1.00D-01 BMatC= 4.20D-10 BMatP= 3.87D-09
 IDIUse=1 WtCom= 1.00D+00 WtEn= 0.00D+00
 Coeff-Com:  0.376D-05 0.587D-04 0.229D-03 0.464D-03-0.277D-02-0.109D-01
 Coeff-Com: -0.197D-01 0.541D-01 0.306D+00 0.672D+00
 Coeff:      0.376D-05 0.587D-04 0.229D-03 0.464D-03-0.277D-02-0.109D-01
 Coeff:     -0.197D-01 0.541D-01 0.306D+00 0.672D+00
 Gap=     0.456 Goal=   None    Shift=    0.000
 RMSDP=5.61D-08 MaxDP=3.06D-06 DE=-2.93D-09 OVMax= 3.34D-06

 Cycle  11  Pass 1  IDiag  1:
 E= -1976.96012886057     Delta-E=       -0.000000000268 Rises=F Damp=F
 DIIS: error= 9.78D-08 at cycle  11 NSaved=  11.
 NSaved=11 IEnMin=11 EnMin= -1976.96012886057     IErMin=11 ErrMin= 9.78D-08
 ErrMax= 9.78D-08  0.00D+00 EMaxC= 1.00D-01 BMatC= 1.79D-11 BMatP= 4.20D-10
 IDIUse=1 WtCom= 1.00D+00 WtEn= 0.00D+00
 Coeff-Com:  0.442D-06 0.171D-04 0.719D-04 0.181D-03-0.297D-03-0.184D-02
 Coeff-Com: -0.672D-02-0.243D-02 0.414D-01 0.191D+00 0.778D+00
 Coeff:      0.442D-06 0.171D-04 0.719D-04 0.181D-03-0.297D-03-0.184D-02
 Coeff:     -0.672D-02-0.243D-02 0.414D-01 0.191D+00 0.778D+00
 Gap=     0.456 Goal=   None    Shift=    0.000
 RMSDP=1.50D-08 MaxDP=9.66D-07 DE=-2.68D-10 OVMax= 1.46D-06

 Cycle  12  Pass 1  IDiag  1:
 E= -1976.96012886059     Delta-E=       -0.000000000025 Rises=F Damp=F
 DIIS: error= 6.48D-08 at cycle  12 NSaved=  12.
 NSaved=12 IEnMin=12 EnMin= -1976.96012886059     IErMin=12 ErrMin= 6.48D-08
 ErrMax= 6.48D-08  0.00D+00 EMaxC= 1.00D-01 BMatC= 4.87D-12 BMatP= 1.79D-11
 IDIUse=1 WtCom= 1.00D+00 WtEn= 0.00D+00
 Coeff-Com: -0.197D-06 0.205D-05 0.103D-04 0.407D-04 0.170D-03 0.319D-03
 Coeff-Com: -0.116D-02-0.746D-02-0.145D-01 0.171D-01 0.391D+00 0.614D+00
 Coeff:     -0.197D-06 0.205D-05 0.103D-04 0.407D-04 0.170D-03 0.319D-03
 Coeff:     -0.116D-02-0.746D-02-0.145D-01 0.171D-01 0.391D+00 0.614D+00
 Gap=     0.456 Goal=   None    Shift=    0.000
 RMSDP=5.31D-09 MaxDP=3.72D-07 DE=-2.46D-11 OVMax= 3.14D-07

 Error on total polarization charges =  0.00045
 SCF Done:  E(RCAM-B3LYP) =  -1976.96012886     A.U. after   12 cycles
            NFock= 12  Conv=0.53D-08     -V/T= 2.0068
 KE= 1.963685414285D+03 PE=-1.103564906556D+04 EE= 3.920495990470D+03
 Leave Link  502 at Mon Feb  3 21:44:53 2025, MaxMem=  5368709120 cpu:       331.4
 (Enter /home/k0335/k033513/app/g09/l601.exe)
 Copying SCF densities to generalized density rwf, IOpCl= 0 IROHF=0.

 **********************************************************************

            Population analysis using the SCF density.

 **********************************************************************

 Alpha  occ. eigenvalues --  -24.84573 -24.83931 -24.83922 -24.83856 -24.83754
 Alpha  occ. eigenvalues --  -24.83737 -24.83701 -24.83648 -24.83564 -24.83511
 Alpha  occ. eigenvalues --  -24.83419 -24.83364 -24.83353 -24.83184 -24.82654
 Alpha  occ. eigenvalues --  -24.82552 -19.32435 -10.55558 -10.55489 -10.53207
 Alpha  occ. eigenvalues --  -10.50531 -10.50306 -10.49689 -10.48645 -10.44390
 Alpha  occ. eigenvalues --   -1.42781  -1.42265  -1.41095  -1.39170  -1.38921
 Alpha  occ. eigenvalues --   -1.38251  -1.37169  -1.35486  -1.33753  -1.33184
 Alpha  occ. eigenvalues --   -1.33075  -1.32810  -1.32697  -1.32311  -1.32200
 Alpha  occ. eigenvalues --   -1.31918  -1.20565  -0.98353  -0.93763  -0.90935
 Alpha  occ. eigenvalues --   -0.86405  -0.82258  -0.78416  -0.77106  -0.76007
 Alpha  occ. eigenvalues --   -0.73531  -0.72186  -0.71629  -0.70748  -0.70556
 Alpha  occ. eigenvalues --   -0.69871  -0.69442  -0.68937  -0.68175  -0.67630
 Alpha  occ. eigenvalues --   -0.66110  -0.65868  -0.65698  -0.65407  -0.64497
 Alpha  occ. eigenvalues --   -0.63501  -0.58831  -0.58791  -0.58110  -0.57579
 Alpha  occ. eigenvalues --   -0.57179  -0.56707  -0.56097  -0.55967  -0.55355
 Alpha  occ. eigenvalues --   -0.55108  -0.55050  -0.54919  -0.54444  -0.53947
 Alpha  occ. eigenvalues --   -0.53899  -0.53502  -0.53169  -0.52572  -0.52164
 Alpha  occ. eigenvalues --   -0.51955  -0.51491  -0.51446  -0.51209  -0.50891
 Alpha  occ. eigenvalues --   -0.50567  -0.50349  -0.49751  -0.49578  -0.49021
 Alpha  occ. eigenvalues --   -0.48430  -0.46571  -0.44922  -0.44260  -0.42699
 Alpha virt. eigenvalues --    0.02855   0.05181   0.06833   0.09523   0.10481
 Alpha virt. eigenvalues --    0.14522   0.15166   0.15540   0.19899   0.20590
 Alpha virt. eigenvalues --    0.23188   0.23858   0.24795   0.25997   0.26494
 Alpha virt. eigenvalues --    0.27145   0.27451   0.28342   0.28759   0.29598
 Alpha virt. eigenvalues --    0.31860   0.32182   0.34987   0.36577   0.37163
 Alpha virt. eigenvalues --    0.44941   0.47726   0.49241   0.50337   0.51435
 Alpha virt. eigenvalues --    0.52133   0.52436   0.54885   0.55530   0.56710
 Alpha virt. eigenvalues --    0.58041   0.60159   0.60427   0.61750   0.62049
 Alpha virt. eigenvalues --    0.64665   0.65495   0.67401   0.68467   0.70555
 Alpha virt. eigenvalues --    0.73278   0.76803   0.80617   0.83180   0.83477
 Alpha virt. eigenvalues --    0.86675   0.89293   0.93736   0.96921   0.99683
 Alpha virt. eigenvalues --    1.01106   1.03629   1.04688   1.06007   1.07350
 Alpha virt. eigenvalues --    1.08274   1.09350   1.09444   1.11428   1.11872
 Alpha virt. eigenvalues --    1.13718   1.14885   1.15696   1.16192   1.17790
 Alpha virt. eigenvalues --    1.18463   1.20074   1.21023   1.22872   1.24805
 Alpha virt. eigenvalues --    1.25529   1.27036   1.27735   1.28453   1.29180
 Alpha virt. eigenvalues --    1.30261   1.31394   1.31539   1.33457   1.34243
 Alpha virt. eigenvalues --    1.35568   1.35932   1.36102   1.36986   1.37455
 Alpha virt. eigenvalues --    1.38062   1.38411   1.38647   1.39162   1.39945
 Alpha virt. eigenvalues --    1.40296   1.41022   1.41624   1.42381   1.42653
 Alpha virt. eigenvalues --    1.42993   1.43376   1.43915   1.45775   1.46773
 Alpha virt. eigenvalues --    1.47979   1.48998   1.49440   1.50646   1.51769
 Alpha virt. eigenvalues --    1.52048   1.53773   1.55081   1.55707   1.57734
 Alpha virt. eigenvalues --    1.58414   1.60067   1.61582   1.62947   1.65901
 Alpha virt. eigenvalues --    1.66990   1.67289   1.67973   1.68506   1.69571
 Alpha virt. eigenvalues --    1.71113   1.72610   1.73676   1.74999   1.75754
 Alpha virt. eigenvalues --    1.76213   1.77604   1.78772   1.79958   1.80911
 Alpha virt. eigenvalues --    1.82011   1.82546   1.82769   1.83072   1.84939
 Alpha virt. eigenvalues --    1.85411   1.86207   1.86952   1.87566   1.88088
 Alpha virt. eigenvalues --    1.89149   1.90268   1.91421   1.91467   1.93051
 Alpha virt. eigenvalues --    1.93869   1.94344   1.95424   1.96859   1.97776
 Alpha virt. eigenvalues --    1.98373   1.99464   2.00116   2.00733   2.01725
 Alpha virt. eigenvalues --    2.02497   2.03025   2.03759   2.04424   2.04924
 Alpha virt. eigenvalues --    2.05719   2.06180   2.06642   2.07803   2.08276
 Alpha virt. eigenvalues --    2.08812   2.09363   2.10339   2.10674   2.11438
 Alpha virt. eigenvalues --    2.12137   2.12783   2.13009   2.13282   2.16451
 Alpha virt. eigenvalues --    2.17683   2.19134   2.19380   2.22274   2.23117
 Alpha virt. eigenvalues --    2.23665   2.26693   2.28751   2.30391   2.31056
 Alpha virt. eigenvalues --    2.31519   2.32265   2.33964   2.35376   2.37376
 Alpha virt. eigenvalues --    2.38231   2.38648   2.40094   2.40684   2.41255
 Alpha virt. eigenvalues --    2.42780   2.43401   2.43968   2.48306   2.50588
 Alpha virt. eigenvalues --    2.51571   2.53066   2.56055   2.58561   2.59164
 Alpha virt. eigenvalues --    2.60815   2.66348   2.69450   2.70977   2.72718
 Alpha virt. eigenvalues --    2.76399   2.76870   2.78366   2.81143   2.82538
 Alpha virt. eigenvalues --    2.85726   2.86051   2.87043   2.87611   2.89976
 Alpha virt. eigenvalues --    2.90547   2.92770   2.93867   2.94863   2.98051
 Alpha virt. eigenvalues --    2.98838   3.00414   3.01826   3.07133   3.07957
 Alpha virt. eigenvalues --    3.10270   3.10744   3.12167   3.13977   3.14799
 Alpha virt. eigenvalues --    3.15531   3.16333   3.18748   3.20320   3.21363
 Alpha virt. eigenvalues --    3.26408   3.27437   3.28078   3.33455   3.43459
 Alpha virt. eigenvalues --    4.15315   4.28826   4.35293   4.40941   4.43287
 Alpha virt. eigenvalues --    4.52484   4.54385   4.65214   4.68687   4.71829
 Alpha virt. eigenvalues --    4.84256   4.94359   4.99635   5.13058   5.18240
 Alpha virt. eigenvalues --    5.30987   5.43462   5.48400   5.59886   5.72747
 Alpha virt. eigenvalues --    5.95327   6.00666   6.15542   6.63230   6.85033
          Condensed to atoms (all electrons):
               1          2          3          4          5          6
     1  F    9.145458   0.182890  -0.026950  -0.000179   0.010530  -0.000954
     2  C    0.182890   5.757405   0.088262  -0.029893  -0.056341   0.010654
     3  C   -0.026950   0.088262   4.828144   0.224401   0.237708  -0.039052
     4  F   -0.000179  -0.029893   0.224401   9.117299  -0.014092   0.000338
     5  C    0.010530  -0.056341   0.237708  -0.014092   4.190967   0.268837
     6  F   -0.000954   0.010654  -0.039052   0.000338   0.268837   9.083861
     7  F   -0.000858  -0.000195  -0.031669  -0.000491   0.281954  -0.038937
     8  F    0.000001   0.002751  -0.023056  -0.000542   0.300916  -0.038858
     9  F    0.000323  -0.038352   0.254766  -0.038956  -0.014976  -0.000275
    10  C   -0.017639   0.057399  -0.035247   0.002149  -0.004026  -0.001693
    11  O   -0.001818  -0.021658   0.002162  -0.000005  -0.000010   0.000001
    12  C    0.009002  -0.084075   0.003926   0.000324  -0.000099   0.000000
    13  F    0.000001   0.002085  -0.000036   0.000000   0.000000   0.000000
    14  F   -0.000123   0.005898   0.000002   0.000000   0.000003   0.000000
    15  C   -0.018203   0.116275  -0.025946   0.015242   0.003470   0.000092
    16  F    0.000358  -0.055051   0.016449  -0.001987   0.000186   0.000000
    17  F   -0.000879  -0.025129  -0.003527  -0.001428  -0.000129   0.000000
    18  C   -0.006416  -0.026841  -0.003548  -0.000003   0.000853   0.007069
    19  F   -0.000014  -0.003569   0.005807   0.000000  -0.000292  -0.006927
    20  C    0.012091  -0.003181   0.000432   0.000000   0.000098   0.000359
    21  F    0.000000  -0.000010  -0.000001   0.000000   0.000004  -0.000017
    22  F   -0.009414   0.010900  -0.002350   0.000000   0.004897  -0.000961
    23  F   -0.000342  -0.002248  -0.000007   0.000000   0.000005   0.000000
    24  F    0.000000   0.002164   0.000013   0.000000  -0.000001   0.000000
    25  F    0.000349  -0.032844  -0.000850  -0.000008   0.000000  -0.000002
               7          8          9         10         11         12
     1  F   -0.000858   0.000001   0.000323  -0.017639  -0.001818   0.009002
     2  C   -0.000195   0.002751  -0.038352   0.057399  -0.021658  -0.084075
     3  C   -0.031669  -0.023056   0.254766  -0.035247   0.002162   0.003926
     4  F   -0.000491  -0.000542  -0.038956   0.002149  -0.000005   0.000324
     5  C    0.281954   0.300916  -0.014976  -0.004026  -0.000010  -0.000099
     6  F   -0.038937  -0.038858  -0.000275  -0.001693   0.000001   0.000000
     7  F    9.074025  -0.038947   0.000282   0.000206   0.000000   0.000002
     8  F   -0.038947   9.043005  -0.000626   0.000013   0.000000   0.000000
     9  F    0.000282  -0.000626   9.090184   0.008307   0.000008  -0.000085
    10  C    0.000206   0.000013   0.008307   5.081969   0.167620  -0.029390
    11  O    0.000000   0.000000   0.000008   0.167620   8.403636   0.188337
    12  C    0.000002   0.000000  -0.000085  -0.029390   0.188337   4.320416
    13  F    0.000000   0.000000   0.000000   0.000976  -0.041250   0.320455
    14  F    0.000000   0.000000   0.000000  -0.001765  -0.051912   0.275736
    15  C   -0.000256  -0.000027  -0.002154  -0.026092  -0.048653   0.251183
    16  F    0.000000   0.000000  -0.000180   0.013040  -0.001217  -0.015545
    17  F    0.000002   0.000000   0.000008   0.001212   0.000777  -0.021030
    18  C   -0.000080  -0.000004  -0.001660   0.157333  -0.036190  -0.001124
    19  F    0.000000  -0.000003  -0.000112  -0.022810   0.000636   0.000009
    20  C    0.000062   0.000001   0.000005  -0.056288   0.004181   0.000450
    21  F    0.000000   0.000000   0.000000   0.002484  -0.000006   0.000001
    22  F   -0.000027   0.000000   0.000001  -0.002619  -0.000039  -0.000075
    23  F    0.000000   0.000000   0.000000   0.005015  -0.000284   0.000939
    24  F    0.000000   0.000000   0.000000  -0.021416   0.000597   0.000189
    25  F    0.000000   0.000000  -0.002738   0.220315  -0.056953   0.002935
              13         14         15         16         17         18
     1  F    0.000001  -0.000123  -0.018203   0.000358  -0.000879  -0.006416
     2  C    0.002085   0.005898   0.116275  -0.055051  -0.025129  -0.026841
     3  C   -0.000036   0.000002  -0.025946   0.016449  -0.003527  -0.003548
     4  F    0.000000   0.000000   0.015242  -0.001987  -0.001428  -0.000003
     5  C    0.000000   0.000003   0.003470   0.000186  -0.000129   0.000853
     6  F    0.000000   0.000000   0.000092   0.000000   0.000000   0.007069
     7  F    0.000000   0.000000  -0.000256   0.000000   0.000002  -0.000080
     8  F    0.000000   0.000000  -0.000027   0.000000   0.000000  -0.000004
     9  F    0.000000   0.000000  -0.002154  -0.000180   0.000008  -0.001660
    10  C    0.000976  -0.001765  -0.026092   0.013040   0.001212   0.157333
    11  O   -0.041250  -0.051912  -0.048653  -0.001217   0.000777  -0.036190
    12  C    0.320455   0.275736   0.251183  -0.015545  -0.021030  -0.001124
    13  F    9.025961  -0.041444  -0.025305  -0.000429  -0.000136  -0.000043
    14  F   -0.041444   9.096224  -0.031860   0.000310  -0.000036  -0.000270
    15  C   -0.025305  -0.031860   4.735948   0.230730   0.278438   0.002385
    16  F   -0.000429   0.000310   0.230730   9.111553  -0.038942   0.000069
    17  F   -0.000136  -0.000036   0.278438  -0.038942   9.069446  -0.000025
    18  C   -0.000043  -0.000270   0.002385   0.000069  -0.000025   4.801262
    19  F    0.000000   0.000000   0.000002   0.000000   0.000000   0.240606
    20  C    0.000002   0.000145  -0.000266   0.000002   0.000001   0.200230
    21  F    0.000000   0.000000   0.000000   0.000000   0.000000  -0.018217
    22  F    0.000000  -0.000001   0.000110   0.000000   0.000000  -0.028237
    23  F    0.000000   0.000000  -0.000015   0.000000   0.000000  -0.034168
    24  F    0.000000   0.000000  -0.000102   0.000000   0.000000   0.247980
    25  F   -0.000013  -0.000007   0.003488  -0.002137   0.000002  -0.017780
              19         20         21         22         23         24
     1  F   -0.000014   0.012091   0.000000  -0.009414  -0.000342   0.000000
     2  C   -0.003569  -0.003181  -0.000010   0.010900  -0.002248   0.002164
     3  C    0.005807   0.000432  -0.000001  -0.002350  -0.000007   0.000013
     4  F    0.000000   0.000000   0.000000   0.000000   0.000000   0.000000
     5  C   -0.000292   0.000098   0.000004   0.004897   0.000005  -0.000001
     6  F   -0.006927   0.000359  -0.000017  -0.000961   0.000000   0.000000
     7  F    0.000000   0.000062   0.000000  -0.000027   0.000000   0.000000
     8  F   -0.000003   0.000001   0.000000   0.000000   0.000000   0.000000
     9  F   -0.000112   0.000005   0.000000   0.000001   0.000000   0.000000
    10  C   -0.022810  -0.056288   0.002484  -0.002619   0.005015  -0.021416
    11  O    0.000636   0.004181  -0.000006  -0.000039  -0.000284   0.000597
    12  C    0.000009   0.000450   0.000001  -0.000075   0.000939   0.000189
    13  F    0.000000   0.000002   0.000000   0.000000   0.000000   0.000000
    14  F    0.000000   0.000145   0.000000  -0.000001   0.000000   0.000000
    15  C    0.000002  -0.000266   0.000000   0.000110  -0.000015  -0.000102
    16  F    0.000000   0.000002   0.000000   0.000000   0.000000   0.000000
    17  F    0.000000   0.000001   0.000000   0.000000   0.000000   0.000000
    18  C    0.240606   0.200230  -0.018217  -0.028237  -0.034168   0.247980
    19  F    9.103335  -0.017265  -0.000547  -0.000254   0.000286  -0.039464
    20  C   -0.017265   4.267115   0.289857   0.263285   0.284513  -0.019634
    21  F   -0.000547   0.289857   9.049884  -0.039530  -0.039128  -0.000469
    22  F   -0.000254   0.263285  -0.039530   9.084906  -0.038374   0.000316
    23  F    0.000286   0.284513  -0.039128  -0.038374   9.060963  -0.000256
    24  F   -0.039464  -0.019634  -0.000469   0.000316  -0.000256   9.095133
    25  F   -0.000976   0.001747  -0.000001   0.000000   0.000001  -0.001438
              25
     1  F    0.000349
     2  C   -0.032844
     3  C   -0.000850
     4  F   -0.000008
     5  C    0.000000
     6  F   -0.000002
     7  F    0.000000
     8  F    0.000000
     9  F   -0.002738
    10  C    0.220315
    11  O   -0.056953
    12  C    0.002935
    13  F   -0.000013
    14  F   -0.000007
    15  C    0.003488
    16  F   -0.002137
    17  F    0.000002
    18  C   -0.017780
    19  F   -0.000976
    20  C    0.001747
    21  F   -0.000001
    22  F    0.000000
    23  F    0.000001
    24  F   -0.001438
    25  F    9.160465
 Mulliken charges:
               1
     1  F   -0.277216
     2  C    0.142703
     3  C    0.530168
     4  F   -0.272169
     5  C    0.789537
     6  F   -0.243536
     7  F   -0.245075
     8  F   -0.244624
     9  F   -0.253770
    10  C    0.500948
    11  O   -0.507960
    12  C    0.777519
    13  F   -0.240825
    14  F   -0.250900
    15  C    0.541514
    16  F   -0.257209
    17  F   -0.258625
    18  C    0.516816
    19  F   -0.258449
    20  C    0.772059
    21  F   -0.244303
    22  F   -0.242535
    23  F   -0.236901
    24  F   -0.263613
    25  F   -0.273555
 Sum of Mulliken charges =   0.00000
 Mulliken charges with hydrogens summed into heavy atoms:
               1
     1  F   -0.277216
     2  C    0.142703
     3  C    0.530168
     4  F   -0.272169
     5  C    0.789537
     6  F   -0.243536
     7  F   -0.245075
     8  F   -0.244624
     9  F   -0.253770
    10  C    0.500948
    11  O   -0.507960
    12  C    0.777519
    13  F   -0.240825
    14  F   -0.250900
    15  C    0.541514
    16  F   -0.257209
    17  F   -0.258625
    18  C    0.516816
    19  F   -0.258449
    20  C    0.772059
    21  F   -0.244303
    22  F   -0.242535
    23  F   -0.236901
    24  F   -0.263613
    25  F   -0.273555
 Electronic spatial extent (au):  <R**2>=           5622.2554
 Charge=              0.0000 electrons
 Dipole moment (field-independent basis, Debye):
    X=              0.3969    Y=             -0.1820    Z=             -0.1823  Tot=              0.4732
 Quadrupole moment (field-independent basis, Debye-Ang):
   XX=           -131.7355   YY=           -130.8766   ZZ=           -131.1554
   XY=              0.6277   XZ=             -0.0434   YZ=             -0.9897
 Traceless Quadrupole moment (field-independent basis, Debye-Ang):
   XX=             -0.4797   YY=              0.3792   ZZ=              0.1005
   XY=              0.6277   XZ=             -0.0434   YZ=             -0.9897
 Octapole moment (field-independent basis, Debye-Ang**2):
  XXX=              2.2332  YYY=             -4.0134  ZZZ=             -1.8694  XYY=              1.7666
  XXY=             -3.0340  XXZ=             -0.1166  XZZ=              2.1467  YZZ=             -2.2891
  YYZ=             -1.8883  XYZ=             -0.6623
 Hexadecapole moment (field-independent basis, Debye-Ang**3):
 XXXX=          -2248.5928 YYYY=          -2166.9482 ZZZZ=          -1114.8393 XXXY=             57.3907
 XXXZ=            152.5521 YYYX=             59.8548 YYYZ=            245.9887 ZZZX=            152.7841
 ZZZY=            250.3469 XXYY=           -743.0021 XXZZ=           -561.4394 YYZZ=           -544.8772
 XXYZ=             86.4442 YYXZ=             51.7936 ZZXY=             19.9314
 N-N= 3.174507531948D+03 E-N=-1.103564906454D+04  KE= 1.963685414285D+03
 No NMR shielding tensors so no spin-rotation constants.
 Leave Link  601 at Mon Feb  3 21:44:54 2025, MaxMem=  5368709120 cpu:         4.7
 (Enter /home/k0335/k033513/app/g09/l9999.exe)
 1\1\GINC-C15U01N1\SP\RCAM-B3LYP\6-31G(d,p)\C8F16O1\K033513\03-Feb-2025
 \0\\#p CAM-B3LYP/6-31G(d,p) SCRF=(PCM,Solvent=Generic,Read) NoSymm out
 =wfn\\Title S1_neu\\0,1\F,0,-0.078351,-0.425379,-1.406549\C,0,0.479864
 ,0.3314,-0.423202\C,0,1.834435,-0.219908,-0.02845\F,0,2.780189,0.25712
 ,-0.895093\C,0,1.918568,-1.742408,-0.068047\F,0,1.010807,-2.319672,0.7
 43934\F,0,1.692646,-2.221099,-1.312938\F,0,3.137884,-2.186315,0.313791
 \F,0,2.190986,0.250624,1.194115\C,0,-0.55588,0.608783,0.672758\O,0,-1.
 501938,1.547743,0.117455\C,0,-0.84252,2.14375,-0.996543\F,0,-1.043272,
 3.473247,-0.98465\F,0,-1.459995,1.644274,-2.092146\C,0,0.616957,1.7374
 77,-0.950443\F,0,1.323447,2.512147,-0.093476\F,0,1.231686,1.803567,-2.
 146622\C,0,-1.287896,-0.532436,1.379659\F,0,-0.391636,-1.223214,2.1371
 87\C,0,-2.05431,-1.463709,0.454215\F,0,-2.75936,-2.389872,1.144236\F,0
 ,-1.219836,-2.141838,-0.365917\F,0,-2.925688,-0.794859,-0.3324\F,0,-2.
 160762,0.01677,2.283334\F,0,0.063977,1.333807,1.655792\\Version=ES64L-
 G09RevD.01\HF=-1976.9601289\RMSD=5.311e-09\Dipole=0.1561679,-0.0716223
 ,-0.0717415\Quadrupole=-0.3566457,0.2819615,0.0746841,0.4666801,-0.032
 2971,-0.7357813\PG=C01 [X(C8F16O1)]\\@

 Writing a WFN file to "cytop/S1/S1_neu.wfn"


 THERE IS SOMETHING FASCINATING ABOUT SCIENCE.
 ONE GETS SUCH WHOLESALE CONJECTURE OUT OF SUCH TRIFLING INVESTMENTS.

                                                       -- MARK TWAIN
 Job cpu time:       0 days  0 hours  5 minutes 53.8 seconds.
 File lengths (MBytes):  RWF=    136 Int=      0 D2E=      0 Chk=      7 Scr=      1
 Normal termination of Gaussian 09 at Mon Feb  3 21:44:54 2025.
