 Entering Gaussian System, Link 0=g09
 Initial command:
 /home/k0335/k033513/app/g09/l1.exe "/home/k0335/k033513/app/g09/scratch/Gau-2966476.inp" -scrdir="/home/k0335/k033513/app/g09/scratch/"
 Default is to use a total of  36 processors:
                               36 via shared-memory
                                1 via Linda
 Entering Link 1 = /home/k0335/k033513/app/g09/l1.exe PID=   2966477.
  
 Copyright (c) 1988,1990,1992,1993,1995,1998,2003,2009,2013,
            Gaussian, Inc.  All Rights Reserved.
  
 This is part of the Gaussian(R) 09 program.  It is based on
 the Gaussian(R) 03 system (copyright 2003, Gaussian, Inc.),
 the Gaussian(R) 98 system (copyright 1998, Gaussian, Inc.),
 the Gaussian(R) 94 system (copyright 1995, Gaussian, Inc.),
 the Gaussian 92(TM) system (copyright 1992, Gaussian, Inc.),
 the Gaussian 90(TM) system (copyright 1990, Gaussian, Inc.),
 the Gaussian 88(TM) system (copyright 1988, Gaussian, Inc.),
 the Gaussian 86(TM) system (copyright 1986, Carnegie Mellon
 University), and the Gaussian 82(TM) system (copyright 1983,
 Carnegie Mellon University). Gaussian is a federally registered
 trademark of Gaussian, Inc.
  
 This software contains proprietary and confidential information,
 including trade secrets, belonging to Gaussian, Inc.
  
 This software is provided under written license and may be
 used, copied, transmitted, or stored only in accord with that
 written license.
  
 The following legend is applicable only to US Government
 contracts under FAR:
  
                    RESTRICTED RIGHTS LEGEND
  
 Use, reproduction and disclosure by the US Government is
 subject to restrictions as set forth in subparagraphs (a)
 and (c) of the Commercial Computer Software - Restricted
 Rights clause in FAR 52.227-19.
  
 Gaussian, Inc.
 340 Quinnipiac St., Bldg. 40, Wallingford CT 06492
  
  
 ---------------------------------------------------------------
 Warning -- This program may not be used in any manner that
 competes with the business of Gaussian, Inc. or will provide
 assistance to any competitor of Gaussian, Inc.  The licensee
 of this program is prohibited from giving any competitor of
 Gaussian, Inc. access to this program.  By using this program,
 the user acknowledges that Gaussian, Inc. is engaged in the
 business of creating and licensing software in the field of
 computational chemistry and represents and warrants to the
 licensee that it is not a competitor of Gaussian, Inc. and that
 it will not use this program in any manner prohibited above.
 ---------------------------------------------------------------
  

 Cite this work as:
 Gaussian 09, Revision D.01,
 M. J. Frisch, G. W. Trucks, H. B. Schlegel, G. E. Scuseria, 
 M. A. Robb, J. R. Cheeseman, G. Scalmani, V. Barone, B. Mennucci, 
 G. A. Petersson, H. Nakatsuji, M. Caricato, X. Li, H. P. Hratchian, 
 A. F. Izmaylov, J. Bloino, G. Zheng, J. L. Sonnenberg, M. Hada, 
 M. Ehara, K. Toyota, R. Fukuda, J. Hasegawa, M. Ishida, T. Nakajima, 
 Y. Honda, O. Kitao, H. Nakai, T. Vreven, J. A. Montgomery, Jr., 
 J. E. Peralta, F. Ogliaro, M. Bearpark, J. J. Heyd, E. Brothers, 
 K. N. Kudin, V. N. Staroverov, T. Keith, R. Kobayashi, J. Normand, 
 K. Raghavachari, A. Rendell, J. C. Burant, S. S. Iyengar, J. Tomasi, 
 M. Cossi, N. Rega, J. M. Millam, M. Klene, J. E. Knox, J. B. Cross, 
 V. Bakken, C. Adamo, J. Jaramillo, R. Gomperts, R. E. Stratmann, 
 O. Yazyev, A. J. Austin, R. Cammi, C. Pomelli, J. W. Ochterski, 
 R. L. Martin, K. Morokuma, V. G. Zakrzewski, G. A. Voth, 
 P. Salvador, J. J. Dannenberg, S. Dapprich, A. D. Daniels, 
 O. Farkas, J. B. Foresman, J. V. Ortiz, J. Cioslowski, 
 and D. J. Fox, Gaussian, Inc., Wallingford CT, 2013.
 
 ******************************************
 Gaussian 09:  ES64L-G09RevD.01 24-Apr-2013
                 3-Feb-2025 
 ******************************************
 %nprocshared=24
 Will use up to   24 processors via shared memory.
 %mem=40GB
 %rwf=cytop/DBE2/DBE2_neu.rwf
 %nosave
 %chk=cytop/DBE2/DBE2_neu.chk
 ----------------------------------------------------------------------
 #p CAM-B3LYP/6-31G(d,p) SCRF=(PCM,Solvent=Generic,Read) NoSymm out=wfn
 ----------------------------------------------------------------------
 1/38=1,40=2/1;
 2/12=2,15=1,17=6,18=5,40=1/2;
 3/5=1,6=6,7=101,11=2,16=1,25=1,30=1,70=2203,72=-2,74=-40/1,2,3;
 4//1;
 5/5=2,38=5/2;
 6/7=2,8=2,9=2,10=2,28=1/1;
 99/5=1,6=100,9=1/99;
 Leave Link    1 at Mon Feb  3 21:57:23 2025, MaxMem=  5368709120 cpu:         1.9
 (Enter /home/k0335/k033513/app/g09/l101.exe)
 --------------
 Title DBE2_neu
 --------------
 Symbolic Z-matrix:
 Charge =  0 Multiplicity = 1
 F                     5.64862   1.44528  -2.53862 
 C                     5.346     0.66796  -1.48198 
 F                     6.06231  -0.47139  -1.61265 
 C                     5.60738   1.33145  -0.13587 
 F                     6.84132   1.13345   0.35577 
 F                     5.45389   2.68089  -0.25953 
 C                     4.49841   0.78007   0.71937 
 F                     4.18032   1.69632   1.69411 
 C                     4.8563   -0.51165   1.44027 
 F                     3.78083  -0.88387   2.20042 
 C                     5.31307  -1.6794    0.56706 
 O                     6.63786  -1.92516   0.6293 
 O                     4.61047  -2.33499  -0.18486 
 F                     5.82269  -0.20466   2.36603 
 C                     3.38737   0.75297  -0.32126 
 F                     3.06773   2.0601   -0.59689 
 C                     2.09459   0.05542   0.10826 
 F                     2.3102   -1.2693    0.31794 
 C                     0.99274   0.28285  -0.93532 
 N                    -0.04453   1.09459  -0.5019 
 C                    -1.23339   1.30338  -1.30353 
 C                    -2.22339   0.11697  -1.29577 
 N                    -2.88565  -0.24953  -0.02704 
 C                    -2.05271  -1.00376   0.92145 
 C                    -1.47923  -2.33208   0.40427 
 C                    -2.55848  -3.30173  -0.0813 
 C                    -1.95566  -4.63017  -0.51165 
 C                    -3.56976   0.86335   0.65224 
 C                    -4.6586    1.52793  -0.20361 
 C                    -5.50283   2.53974   0.57826 
 C                    -4.71329   3.74989   1.05218 
 O                     1.01054  -0.21733  -2.05792 
 F                     1.70861   0.55621   1.32547 
 O                     3.97344   0.28419  -1.54091 
 H                     6.79773  -2.68044   0.02245 
 H                    -0.08372   1.33989   0.48279 
 H                    -1.70908   2.22131  -0.9459 
 H                    -0.9164    1.48739  -2.33663 
 H                    -1.7328   -0.76154  -1.72833 
 H                    -3.0122    0.34975  -2.02246 
 H                    -2.66482  -1.25534   1.79791 
 H                    -1.23325  -0.3863    1.3033 
 H                    -0.92367  -2.80152   1.22675 
 H                    -0.74598  -2.15657  -0.39015 
 H                    -3.286    -3.48011   0.71908 
 H                    -3.10541  -2.87233  -0.92793 
 H                    -1.24828  -4.49069  -1.3353 
 H                    -1.42739  -5.10935   0.3181 
 H                    -2.74272  -5.3107   -0.85119 
 H                    -2.84068   1.60684   0.99276 
 H                    -4.062     0.47518   1.55325 
 H                    -5.33028   0.75366  -0.59494 
 H                    -4.21681   2.03481  -1.06891 
 H                    -6.31718   2.88682  -0.06876 
 H                    -5.97086   2.04917   1.43938 
 H                    -5.38481   4.47404   1.52359 
 H                    -4.21357   4.24629   0.21493 
 H                    -3.957     3.47173   1.79126 
 
 NAtoms=     58 NQM=       58 NQMF=       0 NMMI=      0 NMMIF=      0
                NMic=       0 NMicF=      0.
                    Isotopes and Nuclear Properties:
 (Nuclear quadrupole moments (NQMom) in fm**2, nuclear magnetic moments (NMagM)
  in nuclear magnetons)

  Atom         1           2           3           4           5           6           7           8           9          10
 IAtWgt=          19          12          19          12          19          19          12          19          12          19
 AtmWgt=  18.9984033  12.0000000  18.9984033  12.0000000  18.9984033  18.9984033  12.0000000  18.9984033  12.0000000  18.9984033
 NucSpn=           1           0           1           0           1           1           0           1           0           1
 AtZEff=   0.0000000   0.0000000   0.0000000   0.0000000   0.0000000   0.0000000   0.0000000   0.0000000   0.0000000   0.0000000
 NQMom=    0.0000000   0.0000000   0.0000000   0.0000000   0.0000000   0.0000000   0.0000000   0.0000000   0.0000000   0.0000000
 NMagM=    2.6288670   0.0000000   2.6288670   0.0000000   2.6288670   2.6288670   0.0000000   2.6288670   0.0000000   2.6288670
 AtZNuc=   9.0000000   6.0000000   9.0000000   6.0000000   9.0000000   9.0000000   6.0000000   9.0000000   6.0000000   9.0000000

  Atom        11          12          13          14          15          16          17          18          19          20
 IAtWgt=          12          16          16          19          12          19          12          19          12          14
 AtmWgt=  12.0000000  15.9949146  15.9949146  18.9984033  12.0000000  18.9984033  12.0000000  18.9984033  12.0000000  14.0030740
 NucSpn=           0           0           0           1           0           1           0           1           0           2
 AtZEff=   0.0000000   0.0000000   0.0000000   0.0000000   0.0000000   0.0000000   0.0000000   0.0000000   0.0000000   0.0000000
 NQMom=    0.0000000   0.0000000   0.0000000   0.0000000   0.0000000   0.0000000   0.0000000   0.0000000   0.0000000   2.0440000
 NMagM=    0.0000000   0.0000000   0.0000000   2.6288670   0.0000000   2.6288670   0.0000000   2.6288670   0.0000000   0.4037610
 AtZNuc=   6.0000000   8.0000000   8.0000000   9.0000000   6.0000000   9.0000000   6.0000000   9.0000000   6.0000000   7.0000000

  Atom        21          22          23          24          25          26          27          28          29          30
 IAtWgt=          12          12          14          12          12          12          12          12          12          12
 AtmWgt=  12.0000000  12.0000000  14.0030740  12.0000000  12.0000000  12.0000000  12.0000000  12.0000000  12.0000000  12.0000000
 NucSpn=           0           0           2           0           0           0           0           0           0           0
 AtZEff=   0.0000000   0.0000000   0.0000000   0.0000000   0.0000000   0.0000000   0.0000000   0.0000000   0.0000000   0.0000000
 NQMom=    0.0000000   0.0000000   2.0440000   0.0000000   0.0000000   0.0000000   0.0000000   0.0000000   0.0000000   0.0000000
 NMagM=    0.0000000   0.0000000   0.4037610   0.0000000   0.0000000   0.0000000   0.0000000   0.0000000   0.0000000   0.0000000
 AtZNuc=   6.0000000   6.0000000   7.0000000   6.0000000   6.0000000   6.0000000   6.0000000   6.0000000   6.0000000   6.0000000

  Atom        31          32          33          34          35          36          37          38          39          40
 IAtWgt=          12          16          19          16           1           1           1           1           1           1
 AtmWgt=  12.0000000  15.9949146  18.9984033  15.9949146   1.0078250   1.0078250   1.0078250   1.0078250   1.0078250   1.0078250
 NucSpn=           0           0           1           0           1           1           1           1           1           1
 AtZEff=   0.0000000   0.0000000   0.0000000   0.0000000   0.0000000   0.0000000   0.0000000   0.0000000   0.0000000   0.0000000
 NQMom=    0.0000000   0.0000000   0.0000000   0.0000000   0.0000000   0.0000000   0.0000000   0.0000000   0.0000000   0.0000000
 NMagM=    0.0000000   0.0000000   2.6288670   0.0000000   2.7928460   2.7928460   2.7928460   2.7928460   2.7928460   2.7928460
 AtZNuc=   6.0000000   8.0000000   9.0000000   8.0000000   1.0000000   1.0000000   1.0000000   1.0000000   1.0000000   1.0000000

  Atom        41          42          43          44          45          46          47          48          49          50
 IAtWgt=           1           1           1           1           1           1           1           1           1           1
 AtmWgt=   1.0078250   1.0078250   1.0078250   1.0078250   1.0078250   1.0078250   1.0078250   1.0078250   1.0078250   1.0078250
 NucSpn=           1           1           1           1           1           1           1           1           1           1
 AtZEff=   0.0000000   0.0000000   0.0000000   0.0000000   0.0000000   0.0000000   0.0000000   0.0000000   0.0000000   0.0000000
 NQMom=    0.0000000   0.0000000   0.0000000   0.0000000   0.0000000   0.0000000   0.0000000   0.0000000   0.0000000   0.0000000
 NMagM=    2.7928460   2.7928460   2.7928460   2.7928460   2.7928460   2.7928460   2.7928460   2.7928460   2.7928460   2.7928460
 AtZNuc=   1.0000000   1.0000000   1.0000000   1.0000000   1.0000000   1.0000000   1.0000000   1.0000000   1.0000000   1.0000000

  Atom        51          52          53          54          55          56          57          58
 IAtWgt=           1           1           1           1           1           1           1           1
 AtmWgt=   1.0078250   1.0078250   1.0078250   1.0078250   1.0078250   1.0078250   1.0078250   1.0078250
 NucSpn=           1           1           1           1           1           1           1           1
 AtZEff=   0.0000000   0.0000000   0.0000000   0.0000000   0.0000000   0.0000000   0.0000000   0.0000000
 NQMom=    0.0000000   0.0000000   0.0000000   0.0000000   0.0000000   0.0000000   0.0000000   0.0000000
 NMagM=    2.7928460   2.7928460   2.7928460   2.7928460   2.7928460   2.7928460   2.7928460   2.7928460
 AtZNuc=   1.0000000   1.0000000   1.0000000   1.0000000   1.0000000   1.0000000   1.0000000   1.0000000
 Leave Link  101 at Mon Feb  3 21:57:23 2025, MaxMem=  5368709120 cpu:         0.9
 (Enter /home/k0335/k033513/app/g09/l202.exe)
 Symmetry turned off by external request.
 Stoichiometry    C18H24F10N2O4
 Framework group  C1[X(C18H24F10N2O4)]
 Deg. of freedom   168
 Full point group                 C1      NOp   1
                          Input orientation:                          
 ---------------------------------------------------------------------
 Center     Atomic      Atomic             Coordinates (Angstroms)
 Number     Number       Type             X           Y           Z
 ---------------------------------------------------------------------
      1          9           0        5.648617    1.445277   -2.538618
      2          6           0        5.345995    0.667962   -1.481976
      3          9           0        6.062309   -0.471394   -1.612650
      4          6           0        5.607383    1.331450   -0.135866
      5          9           0        6.841320    1.133449    0.355769
      6          9           0        5.453890    2.680890   -0.259532
      7          6           0        4.498412    0.780070    0.719371
      8          9           0        4.180315    1.696324    1.694105
      9          6           0        4.856298   -0.511649    1.440270
     10          9           0        3.780828   -0.883867    2.200424
     11          6           0        5.313071   -1.679398    0.567057
     12          8           0        6.637862   -1.925164    0.629299
     13          8           0        4.610468   -2.334989   -0.184863
     14          9           0        5.822689   -0.204655    2.366033
     15          6           0        3.387368    0.752966   -0.321256
     16          9           0        3.067729    2.060100   -0.596892
     17          6           0        2.094589    0.055422    0.108260
     18          9           0        2.310201   -1.269295    0.317937
     19          6           0        0.992742    0.282852   -0.935318
     20          7           0       -0.044533    1.094589   -0.501897
     21          6           0       -1.233387    1.303384   -1.303534
     22          6           0       -2.223388    0.116974   -1.295774
     23          7           0       -2.885652   -0.249533   -0.027043
     24          6           0       -2.052705   -1.003761    0.921453
     25          6           0       -1.479228   -2.332084    0.404273
     26          6           0       -2.558478   -3.301729   -0.081300
     27          6           0       -1.955655   -4.630172   -0.511650
     28          6           0       -3.569757    0.863351    0.652244
     29          6           0       -4.658596    1.527927   -0.203606
     30          6           0       -5.502830    2.539740    0.578259
     31          6           0       -4.713289    3.749889    1.052179
     32          8           0        1.010540   -0.217330   -2.057924
     33          9           0        1.708605    0.556207    1.325469
     34          8           0        3.973442    0.284191   -1.540906
     35          1           0        6.797734   -2.680435    0.022448
     36          1           0       -0.083716    1.339890    0.482791
     37          1           0       -1.709081    2.221314   -0.945901
     38          1           0       -0.916397    1.487391   -2.336634
     39          1           0       -1.732795   -0.761544   -1.728325
     40          1           0       -3.012202    0.349753   -2.022458
     41          1           0       -2.664823   -1.255344    1.797906
     42          1           0       -1.233253   -0.386297    1.303297
     43          1           0       -0.923669   -2.801523    1.226748
     44          1           0       -0.745976   -2.156570   -0.390150
     45          1           0       -3.286002   -3.480114    0.719079
     46          1           0       -3.105411   -2.872327   -0.927930
     47          1           0       -1.248280   -4.490686   -1.335296
     48          1           0       -1.427391   -5.109346    0.318100
     49          1           0       -2.742721   -5.310698   -0.851185
     50          1           0       -2.840682    1.606844    0.992761
     51          1           0       -4.062000    0.475180    1.553251
     52          1           0       -5.330277    0.753661   -0.594939
     53          1           0       -4.216812    2.034810   -1.068908
     54          1           0       -6.317178    2.886822   -0.068756
     55          1           0       -5.970855    2.049168    1.439380
     56          1           0       -5.384814    4.474036    1.523585
     57          1           0       -4.213573    4.246287    0.214927
     58          1           0       -3.956999    3.471733    1.791256
 ---------------------------------------------------------------------
 Rotational constants (GHZ):      0.2134875      0.0638588      0.0578461
 Leave Link  202 at Mon Feb  3 21:57:23 2025, MaxMem=  5368709120 cpu:         0.0
 (Enter /home/k0335/k033513/app/g09/l301.exe)
 Standard basis: 6-31G(d,p) (6D, 7F)
 Ernie: Thresh=  0.10000D-02 Tol=  0.10000D-05 Strict=F.
   630 basis functions,  1120 primitive gaussians,   630 cartesian basis functions
   134 alpha electrons      134 beta electrons
       nuclear repulsion energy      4445.4047442892 Hartrees.
 IExCor=20419 DFT=T Ex+Corr=CAM-B3LYP ExCW=0 ScaHFX=  1.000000
 ScaDFX=  1.000000  1.000000  1.000000  0.810000 ScalE2=  1.000000  1.000000
 IRadAn=      0 IRanWt=     -1 IRanGd=            0 ICorTp=0 IEmpDi=  4
  HFx wShort=  0.000000 wLong=  0.330000 cFull=  0.190000 cShort=  0.000000 cLong=  0.460000
  DFx wShort=  0.000000 wLong=  0.330000 cFull=  0.190000 cShort=  0.000000 cLong=  0.460000
 NAtoms=   58 NActive=   58 NUniq=   58 SFac= 1.00D+00 NAtFMM=   60 NAOKFM=F Big=F
 Integral buffers will be    131072 words long.
 Raffenetti 2 integral format.
 Two-electron integral symmetry is turned off.
 Using the following non-standard input for PCM:
 eps=2.05
 --- end of non-standard input.
 ------------------------------------------------------------------------------
 Polarizable Continuum Model (PCM)
 =================================
 Model                : PCM (using non-symmetric T matrix).
 Atomic radii         : UFF (Universal Force Field).
 Polarization charges : Total charges.
 Charge compensation  : None.
 Solution method      : On-the-fly selection.
 Cavity type          : Scaled VdW (van der Waals Surface) (Alpha=1.100).
 Cavity algorithm     : GePol (No added spheres)
                        Default sphere list used, NSphG=   58.
                        Lebedev-Laikov grids with approx.  5.0 points / Ang**2.
                        Smoothing algorithm: Karplus/York (Gamma=1.0000).
                        Polarization charges: spherical gaussians, with
                                              point-specific exponents (IZeta= 3).
                        Self-potential: point-specific (ISelfS= 7).
                        Self-field    : sphere-specific E.n sum rule (ISelfD= 2).
 Solvent              : Generic,
                        Eps                           =   2.050000
                        Eps(infinity)                 =   0.000000
                        RSolv                         =   0.000000 Ang.
                        Molar volume                  =   0.000000 cm**3/mol
                        Thermal expansion coefficient =   0.000000 K**-1
                        Absolute temperature          = 298.150000 K
                        Numeral density               =   0.000000 Ang**-3
                        Hydrogen bond acidity         =   0.000000
                        Hydrogen bond basicity        =   0.000000
                        Surface tension at interface  =   0.000000 (cal/mol)*Ang**-2
                        Carbon aromaticity            =   0.000000
                        Electronegative halogenicity  =   0.000000
 ------------------------------------------------------------------------------
 GePol: Number of generator spheres                  =      58
 GePol: Total number of spheres                      =      58
 GePol: Number of exposed spheres                    =      58 (100.00%)
 GePol: Number of points                             =    3977
 GePol: Average weight of points                     =       0.13
 GePol: Minimum weight of points                     =   0.14D-10
 GePol: Maximum weight of points                     =    0.20577
 GePol: Number of points with low weight             =     250
 GePol: Fraction of low-weight points (<1% of avg)   =       6.29%
 GePol: Cavity surface area                          =    504.687 Ang**2
 GePol: Cavity volume                                =    583.987 Ang**3
 Leave Link  301 at Mon Feb  3 21:57:23 2025, MaxMem=  5368709120 cpu:         0.7
 (Enter /home/k0335/k033513/app/g09/l302.exe)
 NPDir=0 NMtPBC=     1 NCelOv=     1 NCel=       1 NClECP=     1 NCelD=      1
         NCelK=      1 NCelE2=     1 NClLst=     1 CellRange=     0.0.
 One-electron integrals computed using PRISM.
 NBasis=   630 RedAO= T EigKep=  8.18D-04  NBF=   630
 NBsUse=   630 1.00D-06 EigRej= -1.00D+00 NBFU=   630
 Precomputing XC quadrature grid using
 IXCGrd= 4 IRadAn=           0 IRanWt=          -1 IRanGd=           0 AccXCQ= 0.00D+00.
 Generated NRdTot=       0 NPtTot=           0 NUsed=           0 NTot=          32
 NSgBfM=   601   602   603   603   603 MxSgAt=    58 MxSgA2=    58.
 Leave Link  302 at Mon Feb  3 21:57:24 2025, MaxMem=  5368709120 cpu:        17.0
 (Enter /home/k0335/k033513/app/g09/l303.exe)
 DipDrv:  MaxL=1.
 Leave Link  303 at Mon Feb  3 21:57:24 2025, MaxMem=  5368709120 cpu:         1.0
 (Enter /home/k0335/k033513/app/g09/l401.exe)
 ExpMin= 1.61D-01 ExpMax= 7.00D+03 ExpMxC= 1.05D+03 IAcc=1 IRadAn=         1 AccDes= 0.00D+00
 Harris functional with IExCor=20419 and IRadAn=       1 diagonalized for initial guess.
 HarFok:  IExCor=20419 AccDes= 0.00D+00 IRadAn=         1 IDoV= 1 UseB2=F ITyADJ=14
 ICtDFT=  3500011 ScaDFX=  1.000000  1.000000  1.000000  1.000000
 FoFCou: FMM=F IPFlag=           0 FMFlag=      100000 FMFlg1=           0
         NFxFlg=           0 DoJE=T BraDBF=F KetDBF=T FulRan=T
         wScrn=  0.000000 ICntrl=     500 IOpCl=  0 I1Cent=   200000004 NGrid=           0
         NMat0=    1 NMatS0=      1 NMatT0=    0 NMatD0=    1 NMtDS0=    0 NMtDT0=    0
 Symmetry not used in FoFCou.
 Harris En= -2039.01694876763    
 JPrj=0 DoOrth=F DoCkMO=F.
 Leave Link  401 at Mon Feb  3 21:57:25 2025, MaxMem=  5368709120 cpu:        17.2
 (Enter /home/k0335/k033513/app/g09/l502.exe)
 Closed shell SCF:
 Using DIIS extrapolation, IDIIS=  1040.
 Two-electron integral symmetry not used.
 IVT=     1228266 IEndB=     1228266 NGot=  5368709120 MDV=  5367895025
 LenX=  5367895025 LenY=  5367497495
 Requested convergence on RMS density matrix=1.00D-08 within 128 cycles.
 Requested convergence on MAX density matrix=1.00D-06.
 Requested convergence on             energy=1.00D-06.
 No special actions if energy rises.
 Fock matrices will be formed incrementally for  20 cycles.

 Cycle   1  Pass 1  IDiag  1:
 FoFJK:  IHMeth= 1 ICntrl=       0 DoSepK=T KAlg= 0 I1Cent=   0 FoldK=F
 IRaf=         1 NMat=   1 IRICut=       1 DoRegI=T DoRafI=F ISym2E= 0.
 FoFCou: FMM=F IPFlag=           0 FMFlag=      100000 FMFlg1=           0
         NFxFlg=           0 DoJE=T BraDBF=F KetDBF=F FulRan=T
         wScrn=  0.000000 ICntrl=     500 IOpCl=  0 I1Cent=           0 NGrid=           0
         NMat0=    1 NMatS0=      1 NMatT0=    0 NMatD0=    1 NMtDS0=    0 NMtDT0=    0
 Symmetry not used in FoFCou.
 Inv3:  Mode=1 IEnd=    47449587.
 Iteration    1 A*A^-1 deviation from unit magnitude is 9.77D-15 for   3965.
 Iteration    1 A*A^-1 deviation from orthogonality  is 4.60D-15 for   3974   1750.
 Iteration    1 A^-1*A deviation from unit magnitude is 9.99D-15 for   3957.
 Iteration    1 A^-1*A deviation from orthogonality  is 3.25D-15 for   3629   3560.
 E= -2107.77581840014    
 DIIS: error= 5.11D-02 at cycle   1 NSaved=   1.
 NSaved= 1 IEnMin= 1 EnMin= -2107.77581840014     IErMin= 1 ErrMin= 5.11D-02
 ErrMax= 5.11D-02  0.00D+00 EMaxC= 1.00D-01 BMatC= 1.72D+00 BMatP= 1.72D+00
 IDIUse=3 WtCom= 4.89D-01 WtEn= 5.11D-01
 Coeff-Com:  0.100D+01
 Coeff-En:   0.100D+01
 Coeff:      0.100D+01
 Gap=     0.434 Goal=   None    Shift=    0.000
 GapD=    0.434 DampG=2.000 DampE=0.500 DampFc=1.0000 IDamp=-1.
 RMSDP=2.49D-03 MaxDP=1.14D-01              OVMax= 1.39D-01

 Cycle   2  Pass 1  IDiag  1:
 RMSU=  2.49D-03    CP:  9.93D-01
 E= -2108.02033764339     Delta-E=       -0.244519243249 Rises=F Damp=F
 DIIS: error= 1.77D-02 at cycle   2 NSaved=   2.
 NSaved= 2 IEnMin= 2 EnMin= -2108.02033764339     IErMin= 2 ErrMin= 1.77D-02
 ErrMax= 1.77D-02  0.00D+00 EMaxC= 1.00D-01 BMatC= 6.39D-01 BMatP= 1.72D+00
 IDIUse=3 WtCom= 8.23D-01 WtEn= 1.77D-01
 Coeff-Com:  0.354D+00 0.646D+00
 Coeff-En:   0.349D+00 0.651D+00
 Coeff:      0.353D+00 0.647D+00
 Gap=     0.250 Goal=   None    Shift=    0.000
 RMSDP=1.21D-03 MaxDP=7.21D-02 DE=-2.45D-01 OVMax= 9.60D-02

 Cycle   3  Pass 1  IDiag  1:
 RMSU=  7.55D-04    CP:  1.00D+00  6.22D-01
 E= -2108.33310090603     Delta-E=       -0.312763262646 Rises=F Damp=F
 DIIS: error= 7.96D-03 at cycle   3 NSaved=   3.
 NSaved= 3 IEnMin= 3 EnMin= -2108.33310090603     IErMin= 3 ErrMin= 7.96D-03
 ErrMax= 7.96D-03  0.00D+00 EMaxC= 1.00D-01 BMatC= 1.28D-01 BMatP= 6.39D-01
 IDIUse=3 WtCom= 9.20D-01 WtEn= 7.96D-02
 Coeff-Com:  0.712D-01 0.323D+00 0.605D+00
 Coeff-En:   0.000D+00 0.138D+00 0.862D+00
 Coeff:      0.656D-01 0.309D+00 0.626D+00
 Gap=     0.274 Goal=   None    Shift=    0.000
 RMSDP=5.64D-04 MaxDP=4.43D-02 DE=-3.13D-01 OVMax= 7.45D-02

 Cycle   4  Pass 1  IDiag  1:
 RMSU=  2.95D-04    CP:  9.95D-01  7.17D-01  4.54D-01
 E= -2108.40887430776     Delta-E=       -0.075773401727 Rises=F Damp=F
 DIIS: error= 3.36D-03 at cycle   4 NSaved=   4.
 NSaved= 4 IEnMin= 4 EnMin= -2108.40887430776     IErMin= 4 ErrMin= 3.36D-03
 ErrMax= 3.36D-03  0.00D+00 EMaxC= 1.00D-01 BMatC= 1.38D-02 BMatP= 1.28D-01
 IDIUse=3 WtCom= 9.66D-01 WtEn= 3.36D-02
 Coeff-Com:  0.709D-02 0.104D+00 0.330D+00 0.559D+00
 Coeff-En:   0.000D+00 0.000D+00 0.543D-01 0.946D+00
 Coeff:      0.685D-02 0.100D+00 0.321D+00 0.572D+00
 Gap=     0.258 Goal=   None    Shift=    0.000
 RMSDP=1.75D-04 MaxDP=1.61D-02 DE=-7.58D-02 OVMax= 2.81D-02

 Cycle   5  Pass 1  IDiag  1:
 RMSU=  7.88D-05    CP:  9.96D-01  7.16D-01  6.01D-01  6.29D-01
 E= -2108.41854030751     Delta-E=       -0.009665999752 Rises=F Damp=F
 DIIS: error= 1.08D-03 at cycle   5 NSaved=   5.
 NSaved= 5 IEnMin= 5 EnMin= -2108.41854030751     IErMin= 5 ErrMin= 1.08D-03
 ErrMax= 1.08D-03  0.00D+00 EMaxC= 1.00D-01 BMatC= 8.00D-04 BMatP= 1.38D-02
 IDIUse=3 WtCom= 9.89D-01 WtEn= 1.08D-02
 Coeff-Com:  0.578D-03 0.408D-01 0.152D+00 0.320D+00 0.487D+00
 Coeff-En:   0.000D+00 0.000D+00 0.000D+00 0.000D+00 0.100D+01
 Coeff:      0.571D-03 0.404D-01 0.150D+00 0.316D+00 0.493D+00
 Gap=     0.256 Goal=   None    Shift=    0.000
 RMSDP=3.83D-05 MaxDP=3.55D-03 DE=-9.67D-03 OVMax= 7.36D-03

 Cycle   6  Pass 1  IDiag  1:
 RMSU=  2.20D-05    CP:  9.96D-01  7.18D-01  5.99D-01  6.47D-01  6.15D-01
 E= -2108.41911975718     Delta-E=       -0.000579449669 Rises=F Damp=F
 DIIS: error= 1.67D-04 at cycle   6 NSaved=   6.
 NSaved= 6 IEnMin= 6 EnMin= -2108.41911975718     IErMin= 6 ErrMin= 1.67D-04
 ErrMax= 1.67D-04  0.00D+00 EMaxC= 1.00D-01 BMatC= 3.04D-05 BMatP= 8.00D-04
 IDIUse=3 WtCom= 9.98D-01 WtEn= 1.67D-03
 Coeff-Com: -0.580D-03 0.403D-02 0.212D-01 0.555D-01 0.190D+00 0.730D+00
 Coeff-En:   0.000D+00 0.000D+00 0.000D+00 0.000D+00 0.000D+00 0.100D+01
 Coeff:     -0.579D-03 0.402D-02 0.211D-01 0.554D-01 0.190D+00 0.730D+00
 Gap=     0.257 Goal=   None    Shift=    0.000
 RMSDP=1.14D-05 MaxDP=7.05D-04 DE=-5.79D-04 OVMax= 1.12D-03

 Cycle   7  Pass 1  IDiag  1:
 RMSU=  7.78D-06    CP:  9.96D-01  7.18D-01  6.01D-01  6.63D-01  6.93D-01
                    CP:  8.91D-01
 E= -2108.41914212019     Delta-E=       -0.000022363014 Rises=F Damp=F
 DIIS: error= 5.03D-05 at cycle   7 NSaved=   7.
 NSaved= 7 IEnMin= 7 EnMin= -2108.41914212019     IErMin= 7 ErrMin= 5.03D-05
 ErrMax= 5.03D-05  0.00D+00 EMaxC= 1.00D-01 BMatC= 5.20D-06 BMatP= 3.04D-05
 IDIUse=1 WtCom= 1.00D+00 WtEn= 0.00D+00
 Coeff-Com: -0.249D-03-0.372D-02-0.105D-01-0.174D-01 0.295D-01 0.346D+00
 Coeff-Com:  0.656D+00
 Coeff:     -0.249D-03-0.372D-02-0.105D-01-0.174D-01 0.295D-01 0.346D+00
 Coeff:      0.656D+00
 Gap=     0.257 Goal=   None    Shift=    0.000
 RMSDP=3.72D-06 MaxDP=2.60D-04 DE=-2.24D-05 OVMax= 4.80D-04

 Cycle   8  Pass 1  IDiag  1:
 RMSU=  2.40D-06    CP:  9.96D-01  7.19D-01  6.02D-01  6.62D-01  7.09D-01
                    CP:  9.89D-01  8.42D-01
 E= -2108.41914642367     Delta-E=       -0.000004303479 Rises=F Damp=F
 DIIS: error= 1.87D-05 at cycle   8 NSaved=   8.
 NSaved= 8 IEnMin= 8 EnMin= -2108.41914642367     IErMin= 8 ErrMin= 1.87D-05
 ErrMax= 1.87D-05  0.00D+00 EMaxC= 1.00D-01 BMatC= 3.37D-07 BMatP= 5.20D-06
 IDIUse=1 WtCom= 1.00D+00 WtEn= 0.00D+00
 Coeff-Com: -0.538D-04-0.184D-02-0.581D-02-0.118D-01-0.262D-03 0.838D-01
 Coeff-Com:  0.267D+00 0.669D+00
 Coeff:     -0.538D-04-0.184D-02-0.581D-02-0.118D-01-0.262D-03 0.838D-01
 Coeff:      0.267D+00 0.669D+00
 Gap=     0.257 Goal=   None    Shift=    0.000
 RMSDP=1.17D-06 MaxDP=7.22D-05 DE=-4.30D-06 OVMax= 1.46D-04

 Cycle   9  Pass 1  IDiag  1:
 RMSU=  8.89D-07    CP:  9.96D-01  7.19D-01  6.02D-01  6.62D-01  7.15D-01
                    CP:  1.00D+00  8.98D-01  9.77D-01
 E= -2108.41914673328     Delta-E=       -0.000000309606 Rises=F Damp=F
 DIIS: error= 7.82D-06 at cycle   9 NSaved=   9.
 NSaved= 9 IEnMin= 9 EnMin= -2108.41914673328     IErMin= 9 ErrMin= 7.82D-06
 ErrMax= 7.82D-06  0.00D+00 EMaxC= 1.00D-01 BMatC= 4.02D-08 BMatP= 3.37D-07
 IDIUse=1 WtCom= 1.00D+00 WtEn= 0.00D+00
 Coeff-Com:  0.113D-04-0.136D-03-0.534D-03-0.197D-02-0.377D-02-0.264D-01
 Coeff-Com: -0.306D-02 0.227D+00 0.809D+00
 Coeff:      0.113D-04-0.136D-03-0.534D-03-0.197D-02-0.377D-02-0.264D-01
 Coeff:     -0.306D-02 0.227D+00 0.809D+00
 Gap=     0.257 Goal=   None    Shift=    0.000
 RMSDP=6.13D-07 MaxDP=5.76D-05 DE=-3.10D-07 OVMax= 8.04D-05

 Cycle  10  Pass 1  IDiag  1:
 RMSU=  3.16D-07    CP:  9.96D-01  7.19D-01  6.02D-01  6.62D-01  7.18D-01
                    CP:  1.01D+00  9.29D-01  1.10D+00  1.02D+00
 E= -2108.41914678567     Delta-E=       -0.000000052393 Rises=F Damp=F
 DIIS: error= 2.20D-06 at cycle  10 NSaved=  10.
 NSaved=10 IEnMin=10 EnMin= -2108.41914678567     IErMin=10 ErrMin= 2.20D-06
 ErrMax= 2.20D-06  0.00D+00 EMaxC= 1.00D-01 BMatC= 5.08D-09 BMatP= 4.02D-08
 IDIUse=1 WtCom= 1.00D+00 WtEn= 0.00D+00
 Coeff-Com:  0.116D-04 0.169D-03 0.491D-03 0.596D-03-0.967D-03-0.206D-01
 Coeff-Com: -0.321D-01-0.132D-02 0.296D+00 0.758D+00
 Coeff:      0.116D-04 0.169D-03 0.491D-03 0.596D-03-0.967D-03-0.206D-01
 Coeff:     -0.321D-01-0.132D-02 0.296D+00 0.758D+00
 Gap=     0.257 Goal=   None    Shift=    0.000
 RMSDP=2.07D-07 MaxDP=1.58D-05 DE=-5.24D-08 OVMax= 3.53D-05

 Cycle  11  Pass 1  IDiag  1:
 RMSU=  1.16D-07    CP:  9.96D-01  7.19D-01  6.02D-01  6.62D-01  7.18D-01
                    CP:  1.01D+00  9.40D-01  1.14D+00  1.13D+00  9.82D-01
 E= -2108.41914679107     Delta-E=       -0.000000005399 Rises=F Damp=F
 DIIS: error= 2.13D-06 at cycle  11 NSaved=  11.
 NSaved=11 IEnMin=11 EnMin= -2108.41914679107     IErMin=11 ErrMin= 2.13D-06
 ErrMax= 2.13D-06  0.00D+00 EMaxC= 1.00D-01 BMatC= 1.54D-09 BMatP= 5.08D-09
 IDIUse=1 WtCom= 1.00D+00 WtEn= 0.00D+00
 Coeff-Com:  0.541D-05 0.115D-03 0.349D-03 0.578D-03 0.928D-04-0.829D-02
 Coeff-Com: -0.170D-01-0.293D-01 0.658D-01 0.435D+00 0.553D+00
 Coeff:      0.541D-05 0.115D-03 0.349D-03 0.578D-03 0.928D-04-0.829D-02
 Coeff:     -0.170D-01-0.293D-01 0.658D-01 0.435D+00 0.553D+00
 Gap=     0.257 Goal=   None    Shift=    0.000
 RMSDP=7.34D-08 MaxDP=7.88D-06 DE=-5.40D-09 OVMax= 1.32D-05

 Cycle  12  Pass 1  IDiag  1:
 RMSU=  4.52D-08    CP:  9.96D-01  7.19D-01  6.02D-01  6.62D-01  7.19D-01
                    CP:  1.01D+00  9.42D-01  1.14D+00  1.16D+00  1.07D+00
                    CP:  7.84D-01
 E= -2108.41914679227     Delta-E=       -0.000000001205 Rises=F Damp=F
 DIIS: error= 3.27D-07 at cycle  12 NSaved=  12.
 NSaved=12 IEnMin=12 EnMin= -2108.41914679227     IErMin=12 ErrMin= 3.27D-07
 ErrMax= 3.27D-07  0.00D+00 EMaxC= 1.00D-01 BMatC= 9.45D-11 BMatP= 1.54D-09
 IDIUse=1 WtCom= 1.00D+00 WtEn= 0.00D+00
 Coeff-Com:  0.647D-07 0.171D-04 0.560D-04 0.121D-03 0.293D-03 0.238D-03
 Coeff-Com: -0.912D-03-0.104D-01-0.219D-01 0.371D-01 0.195D+00 0.801D+00
 Coeff:      0.647D-07 0.171D-04 0.560D-04 0.121D-03 0.293D-03 0.238D-03
 Coeff:     -0.912D-03-0.104D-01-0.219D-01 0.371D-01 0.195D+00 0.801D+00
 Gap=     0.257 Goal=   None    Shift=    0.000
 RMSDP=2.48D-08 MaxDP=1.55D-06 DE=-1.21D-09 OVMax= 5.52D-06

 Cycle  13  Pass 1  IDiag  1:
 RMSU=  1.41D-08    CP:  9.96D-01  7.19D-01  6.02D-01  6.62D-01  7.19D-01
                    CP:  1.01D+00  9.42D-01  1.15D+00  1.17D+00  1.11D+00
                    CP:  8.85D-01  9.63D-01
 E= -2108.41914679259     Delta-E=       -0.000000000312 Rises=F Damp=F
 DIIS: error= 1.26D-07 at cycle  13 NSaved=  13.
 NSaved=13 IEnMin=13 EnMin= -2108.41914679259     IErMin=13 ErrMin= 1.26D-07
 ErrMax= 1.26D-07  0.00D+00 EMaxC= 1.00D-01 BMatC= 1.79D-11 BMatP= 9.45D-11
 IDIUse=1 WtCom= 1.00D+00 WtEn= 0.00D+00
 Coeff-Com: -0.555D-06-0.356D-05-0.848D-05-0.230D-05 0.143D-03 0.940D-03
 Coeff-Com:  0.132D-02-0.220D-02-0.180D-01-0.295D-01 0.315D-01 0.382D+00
 Coeff-Com:  0.634D+00
 Coeff:     -0.555D-06-0.356D-05-0.848D-05-0.230D-05 0.143D-03 0.940D-03
 Coeff:      0.132D-02-0.220D-02-0.180D-01-0.295D-01 0.315D-01 0.382D+00
 Coeff:      0.634D+00
 Gap=     0.257 Goal=   None    Shift=    0.000
 RMSDP=8.71D-09 MaxDP=8.34D-07 DE=-3.12D-10 OVMax= 1.14D-06

 Error on total polarization charges =  0.00470
 SCF Done:  E(RCAM-B3LYP) =  -2108.41914679     A.U. after   13 cycles
            NFock= 13  Conv=0.87D-08     -V/T= 2.0078
 KE= 2.092115149551D+03 PE=-1.385289406538D+04 EE= 5.206955024744D+03
 Leave Link  502 at Mon Feb  3 21:58:27 2025, MaxMem=  5368709120 cpu:      1394.0
 (Enter /home/k0335/k033513/app/g09/l601.exe)
 Copying SCF densities to generalized density rwf, IOpCl= 0 IROHF=0.

 **********************************************************************

            Population analysis using the SCF density.

 **********************************************************************

 Alpha  occ. eigenvalues --  -24.83562 -24.83197 -24.82969 -24.82615 -24.82490
 Alpha  occ. eigenvalues --  -24.82074 -24.81991 -24.81864 -24.81821 -24.81463
 Alpha  occ. eigenvalues --  -19.31873 -19.30069 -19.25209 -19.21882 -14.45301
 Alpha  occ. eigenvalues --  -14.39523 -10.52986 -10.49363 -10.48942 -10.47824
 Alpha  occ. eigenvalues --  -10.47085 -10.44392 -10.42665 -10.39796 -10.30116
 Alpha  occ. eigenvalues --  -10.28292 -10.27960 -10.27563 -10.25334 -10.25222
 Alpha  occ. eigenvalues --  -10.24732 -10.24585 -10.24261 -10.23653  -1.40564
 Alpha  occ. eigenvalues --   -1.38441  -1.37889  -1.37153  -1.35255  -1.33062
 Alpha  occ. eigenvalues --   -1.32809  -1.31613  -1.30944  -1.30537  -1.22120
 Alpha  occ. eigenvalues --   -1.20212  -1.13879  -1.12342  -1.02129  -0.99163
 Alpha  occ. eigenvalues --   -0.97527  -0.91210  -0.88007  -0.87304  -0.86526
 Alpha  occ. eigenvalues --   -0.84542  -0.81926  -0.80388  -0.78225  -0.77483
 Alpha  occ. eigenvalues --   -0.76480  -0.74481  -0.73478  -0.71161  -0.70747
 Alpha  occ. eigenvalues --   -0.70363  -0.69405  -0.68268  -0.67537  -0.66770
 Alpha  occ. eigenvalues --   -0.66484  -0.66229  -0.66107  -0.65116  -0.64326
 Alpha  occ. eigenvalues --   -0.63974  -0.63662  -0.62977  -0.62711  -0.62176
 Alpha  occ. eigenvalues --   -0.58449  -0.57657  -0.57168  -0.56806  -0.55949
 Alpha  occ. eigenvalues --   -0.55744  -0.55362  -0.55002  -0.54822  -0.54701
 Alpha  occ. eigenvalues --   -0.54139  -0.53626  -0.53152  -0.52824  -0.52575
 Alpha  occ. eigenvalues --   -0.52193  -0.51917  -0.51743  -0.51698  -0.51086
 Alpha  occ. eigenvalues --   -0.51055  -0.50787  -0.50150  -0.49975  -0.49553
 Alpha  occ. eigenvalues --   -0.49226  -0.48996  -0.48937  -0.48760  -0.48133
 Alpha  occ. eigenvalues --   -0.47770  -0.47341  -0.46164  -0.45910  -0.45517
 Alpha  occ. eigenvalues --   -0.45409  -0.44633  -0.43865  -0.43759  -0.42549
 Alpha  occ. eigenvalues --   -0.42025  -0.41554  -0.40884  -0.40613  -0.39679
 Alpha  occ. eigenvalues --   -0.39106  -0.38702  -0.38105  -0.37815  -0.37470
 Alpha  occ. eigenvalues --   -0.37095  -0.34720  -0.33596  -0.26250
 Alpha virt. eigenvalues --   -0.00567   0.02501   0.05145   0.07002   0.10134
 Alpha virt. eigenvalues --    0.10804   0.12261   0.12736   0.13403   0.13953
 Alpha virt. eigenvalues --    0.15449   0.15980   0.16483   0.16860   0.17376
 Alpha virt. eigenvalues --    0.18085   0.18812   0.19576   0.20352   0.20887
 Alpha virt. eigenvalues --    0.21185   0.21310   0.21781   0.22424   0.22875
 Alpha virt. eigenvalues --    0.22993   0.23452   0.23609   0.24301   0.24663
 Alpha virt. eigenvalues --    0.24978   0.25105   0.25464   0.25659   0.26741
 Alpha virt. eigenvalues --    0.27264   0.27387   0.27751   0.27947   0.28434
 Alpha virt. eigenvalues --    0.28656   0.29529   0.30026   0.30463   0.30964
 Alpha virt. eigenvalues --    0.31502   0.31642   0.32080   0.32615   0.33219
 Alpha virt. eigenvalues --    0.33533   0.33691   0.34931   0.35679   0.36817
 Alpha virt. eigenvalues --    0.37705   0.38238   0.41239   0.41594   0.44736
 Alpha virt. eigenvalues --    0.47789   0.50940   0.52285   0.52630   0.53368
 Alpha virt. eigenvalues --    0.54172   0.54891   0.55641   0.55878   0.56582
 Alpha virt. eigenvalues --    0.57186   0.58072   0.58294   0.58438   0.59649
 Alpha virt. eigenvalues --    0.60192   0.60579   0.61384   0.62058   0.62335
 Alpha virt. eigenvalues --    0.62706   0.63168   0.64240   0.64850   0.65323
 Alpha virt. eigenvalues --    0.66625   0.67618   0.67986   0.68523   0.69049
 Alpha virt. eigenvalues --    0.69347   0.70562   0.71074   0.72034   0.72286
 Alpha virt. eigenvalues --    0.73657   0.74125   0.74256   0.74770   0.75605
 Alpha virt. eigenvalues --    0.76461   0.76904   0.77680   0.78683   0.79860
 Alpha virt. eigenvalues --    0.81029   0.81344   0.82521   0.82601   0.83338
 Alpha virt. eigenvalues --    0.84912   0.85933   0.86606   0.87215   0.88023
 Alpha virt. eigenvalues --    0.89199   0.89987   0.90076   0.90419   0.91126
 Alpha virt. eigenvalues --    0.91814   0.92165   0.93157   0.93615   0.93820
 Alpha virt. eigenvalues --    0.94245   0.94697   0.95818   0.95944   0.96580
 Alpha virt. eigenvalues --    0.97141   0.97455   0.98660   0.99006   0.99805
 Alpha virt. eigenvalues --    1.00190   1.00629   1.01296   1.01766   1.02075
 Alpha virt. eigenvalues --    1.02383   1.02487   1.03333   1.03706   1.04618
 Alpha virt. eigenvalues --    1.05702   1.06013   1.06856   1.07129   1.07703
 Alpha virt. eigenvalues --    1.08173   1.09260   1.09793   1.10494   1.10826
 Alpha virt. eigenvalues --    1.12337   1.13229   1.13708   1.14965   1.15590
 Alpha virt. eigenvalues --    1.16554   1.16951   1.18053   1.18585   1.19631
 Alpha virt. eigenvalues --    1.20180   1.21080   1.21762   1.22522   1.23592
 Alpha virt. eigenvalues --    1.24507   1.26323   1.27938   1.28966   1.29295
 Alpha virt. eigenvalues --    1.31144   1.32152   1.32666   1.33332   1.34761
 Alpha virt. eigenvalues --    1.34929   1.35246   1.35865   1.37078   1.37391
 Alpha virt. eigenvalues --    1.37757   1.38262   1.38697   1.40862   1.41112
 Alpha virt. eigenvalues --    1.42011   1.42466   1.43031   1.43167   1.43353
 Alpha virt. eigenvalues --    1.44321   1.45009   1.46111   1.46896   1.47610
 Alpha virt. eigenvalues --    1.48628   1.49558   1.50707   1.50923   1.51127
 Alpha virt. eigenvalues --    1.51560   1.52838   1.53888   1.54651   1.55469
 Alpha virt. eigenvalues --    1.55785   1.56294   1.56746   1.58193   1.58991
 Alpha virt. eigenvalues --    1.59231   1.59974   1.60595   1.62133   1.62912
 Alpha virt. eigenvalues --    1.63898   1.64739   1.65787   1.67368   1.68473
 Alpha virt. eigenvalues --    1.68826   1.70435   1.71235   1.71893   1.72546
 Alpha virt. eigenvalues --    1.73056   1.74044   1.74948   1.75119   1.76082
 Alpha virt. eigenvalues --    1.76481   1.76874   1.77814   1.77853   1.78620
 Alpha virt. eigenvalues --    1.79680   1.79736   1.80420   1.80888   1.82165
 Alpha virt. eigenvalues --    1.82985   1.83534   1.84134   1.85339   1.86038
 Alpha virt. eigenvalues --    1.86151   1.86645   1.87242   1.88076   1.88289
 Alpha virt. eigenvalues --    1.88404   1.89032   1.89165   1.90072   1.90632
 Alpha virt. eigenvalues --    1.91052   1.91875   1.92366   1.93011   1.93700
 Alpha virt. eigenvalues --    1.94467   1.94945   1.95815   1.96098   1.96773
 Alpha virt. eigenvalues --    1.97036   1.97409   1.98000   1.99220   1.99717
 Alpha virt. eigenvalues --    2.00286   2.01598   2.01895   2.02572   2.02877
 Alpha virt. eigenvalues --    2.03361   2.04232   2.04411   2.05303   2.05955
 Alpha virt. eigenvalues --    2.06384   2.07006   2.07523   2.07961   2.08009
 Alpha virt. eigenvalues --    2.08883   2.09636   2.10502   2.11307   2.11867
 Alpha virt. eigenvalues --    2.12413   2.12761   2.13400   2.13635   2.13823
 Alpha virt. eigenvalues --    2.14728   2.15042   2.15206   2.16235   2.16465
 Alpha virt. eigenvalues --    2.17154   2.17979   2.18840   2.19582   2.19857
 Alpha virt. eigenvalues --    2.20106   2.20877   2.21055   2.22003   2.22629
 Alpha virt. eigenvalues --    2.23111   2.23968   2.24412   2.24785   2.27043
 Alpha virt. eigenvalues --    2.27836   2.28095   2.28937   2.29769   2.30642
 Alpha virt. eigenvalues --    2.31011   2.31667   2.32364   2.32847   2.33073
 Alpha virt. eigenvalues --    2.34080   2.34575   2.35216   2.35922   2.36458
 Alpha virt. eigenvalues --    2.37035   2.37453   2.38005   2.38998   2.39769
 Alpha virt. eigenvalues --    2.40107   2.40703   2.41497   2.42885   2.43312
 Alpha virt. eigenvalues --    2.44207   2.45568   2.45875   2.46444   2.46812
 Alpha virt. eigenvalues --    2.48465   2.49052   2.50290   2.51047   2.52311
 Alpha virt. eigenvalues --    2.53463   2.54394   2.54524   2.55994   2.56807
 Alpha virt. eigenvalues --    2.57252   2.58457   2.58564   2.59364   2.60077
 Alpha virt. eigenvalues --    2.61010   2.61811   2.61902   2.62375   2.65042
 Alpha virt. eigenvalues --    2.66246   2.66549   2.68142   2.69361   2.70171
 Alpha virt. eigenvalues --    2.70629   2.71780   2.72744   2.73001   2.73170
 Alpha virt. eigenvalues --    2.74924   2.77476   2.78268   2.79230   2.79402
 Alpha virt. eigenvalues --    2.80535   2.80588   2.81004   2.81383   2.82399
 Alpha virt. eigenvalues --    2.83654   2.84216   2.84362   2.84967   2.85414
 Alpha virt. eigenvalues --    2.86111   2.87098   2.88414   2.88866   2.90359
 Alpha virt. eigenvalues --    2.90944   2.92041   2.92533   2.92656   2.92770
 Alpha virt. eigenvalues --    2.93724   2.95004   2.95863   2.96353   2.97421
 Alpha virt. eigenvalues --    2.97725   2.98884   2.99313   2.99543   2.99879
 Alpha virt. eigenvalues --    3.00285   3.00550   3.01390   3.02185   3.03085
 Alpha virt. eigenvalues --    3.04341   3.06201   3.07522   3.08528   3.09949
 Alpha virt. eigenvalues --    3.10933   3.14142   3.15251   3.16005   3.19101
 Alpha virt. eigenvalues --    3.21184   3.22056   3.24856   3.27187   3.27729
 Alpha virt. eigenvalues --    3.28232   3.30377   3.31484   3.33854   3.34708
 Alpha virt. eigenvalues --    3.36030   3.37180   3.37606   3.39403   3.40871
 Alpha virt. eigenvalues --    3.42002   3.42449   3.43605   3.45926   3.47157
 Alpha virt. eigenvalues --    3.48482   3.51413   3.52119   3.54200   3.56224
 Alpha virt. eigenvalues --    3.57497   3.58161   3.61289   3.63381   3.64524
 Alpha virt. eigenvalues --    3.66191   3.67718   4.01418   4.09758   4.13938
 Alpha virt. eigenvalues --    4.16547   4.28386   4.34930   4.37429   4.38041
 Alpha virt. eigenvalues --    4.40015   4.40836   4.47841   4.53057   4.54627
 Alpha virt. eigenvalues --    4.55076   4.57412   4.63641   4.66510   4.68200
 Alpha virt. eigenvalues --    4.69383   4.75762   4.78646   4.82210   4.83526
 Alpha virt. eigenvalues --    4.86810   4.95044   5.04140   5.34427   5.42638
 Alpha virt. eigenvalues --    5.51809   5.83718   5.91848   6.15535   6.73113
 Alpha virt. eigenvalues --    6.99963
          Condensed to atoms (all electrons):
 Mulliken charges:
               1
     1  F   -0.241440
     2  C    0.772459
     3  F   -0.247792
     4  C    0.513032
     5  F   -0.249357
     6  F   -0.267864
     7  C    0.217636
     8  F   -0.295605
     9  C    0.619851
    10  F   -0.267179
    11  C    0.507383
    12  O   -0.471144
    13  O   -0.435805
    14  F   -0.274678
    15  C    0.458612
    16  F   -0.285605
    17  C    0.582767
    18  F   -0.255029
    19  C    0.533384
    20  N   -0.527244
    21  C   -0.063860
    22  C   -0.061780
    23  N   -0.441234
    24  C   -0.018893
    25  C   -0.204361
    26  C   -0.163580
    27  C   -0.319975
    28  C   -0.018060
    29  C   -0.190338
    30  C   -0.184413
    31  C   -0.319356
    32  O   -0.510779
    33  F   -0.292539
    34  O   -0.477381
    35  H    0.361323
    36  H    0.290483
    37  H    0.120149
    38  H    0.141580
    39  H    0.130299
    40  H    0.113164
    41  H    0.097757
    42  H    0.050523
    43  H    0.096828
    44  H    0.102404
    45  H    0.089298
    46  H    0.106238
    47  H    0.107241
    48  H    0.099904
    49  H    0.098000
    50  H    0.066042
    51  H    0.102267
    52  H    0.107156
    53  H    0.092855
    54  H    0.097824
    55  H    0.096686
    56  H    0.104938
    57  H    0.102045
    58  H    0.105159
 Sum of Mulliken charges =   0.00000
 Mulliken charges with hydrogens summed into heavy atoms:
               1
     1  F   -0.241440
     2  C    0.772459
     3  F   -0.247792
     4  C    0.513032
     5  F   -0.249357
     6  F   -0.267864
     7  C    0.217636
     8  F   -0.295605
     9  C    0.619851
    10  F   -0.267179
    11  C    0.507383
    12  O   -0.109821
    13  O   -0.435805
    14  F   -0.274678
    15  C    0.458612
    16  F   -0.285605
    17  C    0.582767
    18  F   -0.255029
    19  C    0.533384
    20  N   -0.236760
    21  C    0.197869
    22  C    0.181683
    23  N   -0.441234
    24  C    0.129388
    25  C   -0.005129
    26  C    0.031957
    27  C   -0.014830
    28  C    0.150250
    29  C    0.009673
    30  C    0.010098
    31  C   -0.007214
    32  O   -0.510779
    33  F   -0.292539
    34  O   -0.477381
 Electronic spatial extent (au):  <R**2>=          21571.8779
 Charge=              0.0000 electrons
 Dipole moment (field-independent basis, Debye):
    X=             -1.0870    Y=              0.9392    Z=              1.6734  Tot=              2.2054
 Quadrupole moment (field-independent basis, Debye-Ang):
   XX=           -178.6621   YY=           -191.0968   ZZ=           -200.8549
   XY=            -15.6623   XZ=             -1.7068   YZ=             -3.1300
 Traceless Quadrupole moment (field-independent basis, Debye-Ang):
   XX=             11.5425   YY=             -0.8922   ZZ=            -10.6503
   XY=            -15.6623   XZ=             -1.7068   YZ=             -3.1300
 Octapole moment (field-independent basis, Debye-Ang**2):
  XXX=           -703.8230  YYY=            -62.9366  ZZZ=             13.8444  XYY=           -249.1994
  XXY=            -92.0362  XXZ=            -27.6399  XZZ=           -303.9882  YZZ=            -13.8562
  YYZ=              5.2387  XYZ=              1.2725
 Hexadecapole moment (field-independent basis, Debye-Ang**3):
 XXXX=         -18484.3734 YYYY=          -4171.3989 ZZZZ=          -1707.8479 XXXY=           -561.2965
 XXXZ=           -246.3786 YYYX=             33.5981 YYYZ=            -10.9772 ZZZX=             65.9515
 ZZZY=             -0.0666 XXYY=          -3630.5916 XXZZ=          -3594.1026 YYZZ=           -962.7176
 XXYZ=             20.2416 YYXZ=             28.9331 ZZXY=             66.6478
 N-N= 4.445404744289D+03 E-N=-1.385289406811D+04  KE= 2.092115149551D+03
 No NMR shielding tensors so no spin-rotation constants.
 Leave Link  601 at Mon Feb  3 21:58:28 2025, MaxMem=  5368709120 cpu:         5.5
 (Enter /home/k0335/k033513/app/g09/l9999.exe)
 1\1\GINC-C15U05N1\SP\RCAM-B3LYP\6-31G(d,p)\C18H24F10N2O4\K033513\03-Fe
 b-2025\0\\#p CAM-B3LYP/6-31G(d,p) SCRF=(PCM,Solvent=Generic,Read) NoSy
 mm out=wfn\\Title DBE2_neu\\0,1\F,0,5.648617,1.445277,-2.538618\C,0,5.
 345995,0.667962,-1.481976\F,0,6.062309,-0.471394,-1.61265\C,0,5.607383
 ,1.33145,-0.135866\F,0,6.84132,1.133449,0.355769\F,0,5.45389,2.68089,-
 0.259532\C,0,4.498412,0.78007,0.719371\F,0,4.180315,1.696324,1.694105\
 C,0,4.856298,-0.511649,1.44027\F,0,3.780828,-0.883867,2.200424\C,0,5.3
 13071,-1.679398,0.567057\O,0,6.637862,-1.925164,0.629299\O,0,4.610468,
 -2.334989,-0.184863\F,0,5.822689,-0.204655,2.366033\C,0,3.387368,0.752
 966,-0.321256\F,0,3.067729,2.0601,-0.596892\C,0,2.094589,0.055422,0.10
 826\F,0,2.310201,-1.269295,0.317937\C,0,0.992742,0.282852,-0.935318\N,
 0,-0.044533,1.094589,-0.501897\C,0,-1.233387,1.303384,-1.303534\C,0,-2
 .223388,0.116974,-1.295774\N,0,-2.885652,-0.249533,-0.027043\C,0,-2.05
 2705,-1.003761,0.921453\C,0,-1.479228,-2.332084,0.404273\C,0,-2.558478
 ,-3.301729,-0.0813\C,0,-1.955655,-4.630172,-0.51165\C,0,-3.569757,0.86
 3351,0.652244\C,0,-4.658596,1.527927,-0.203606\C,0,-5.50283,2.53974,0.
 578259\C,0,-4.713289,3.749889,1.052179\O,0,1.01054,-0.21733,-2.057924\
 F,0,1.708605,0.556207,1.325469\O,0,3.973442,0.284191,-1.540906\H,0,6.7
 97734,-2.680435,0.022448\H,0,-0.083716,1.33989,0.482791\H,0,-1.709081,
 2.221314,-0.945901\H,0,-0.916397,1.487391,-2.336634\H,0,-1.732795,-0.7
 61544,-1.728325\H,0,-3.012202,0.349753,-2.022458\H,0,-2.664823,-1.2553
 44,1.797906\H,0,-1.233253,-0.386297,1.303297\H,0,-0.923669,-2.801523,1
 .226748\H,0,-0.745976,-2.15657,-0.39015\H,0,-3.286002,-3.480114,0.7190
 79\H,0,-3.105411,-2.872327,-0.92793\H,0,-1.24828,-4.490686,-1.335296\H
 ,0,-1.427391,-5.109346,0.3181\H,0,-2.742721,-5.310698,-0.851185\H,0,-2
 .840682,1.606844,0.992761\H,0,-4.062,0.47518,1.553251\H,0,-5.330277,0.
 753661,-0.594939\H,0,-4.216812,2.03481,-1.068908\H,0,-6.317178,2.88682
 2,-0.068756\H,0,-5.970855,2.049168,1.43938\H,0,-5.384814,4.474036,1.52
 3585\H,0,-4.213573,4.246287,0.214927\H,0,-3.956999,3.471733,1.791256\\
 Version=ES64L-G09RevD.01\HF=-2108.4191468\RMSD=8.713e-09\Dipole=-0.427
 6494,0.3695008,0.658347\Quadrupole=8.5815604,-0.6633423,-7.9182181,-11
 .6445361,-1.2689468,-2.3270761\PG=C01 [X(C18H24F10N2O4)]\\@

 Writing a WFN file to "cytop/DBE2/DBE2_neu.wfn"


 The juvenile sea squirt wanders through the sea searching
 for a suitable rock or hunk of coral to cling to and make
 its home for life.  For this task it has a rudimentary
 nervous system.  When it finds its spot and takes root, it
 doesn't need its brain any more so it eats it.
 It's rather like getting tenure.

                               -- source unknown
 Job cpu time:       0 days  0 hours 24 minutes  3.5 seconds.
 File lengths (MBytes):  RWF=    473 Int=      0 D2E=      0 Chk=     16 Scr=      1
 Normal termination of Gaussian 09 at Mon Feb  3 21:58:28 2025.
