 Entering Gaussian System, Link 0=g09
 Initial command:
 /home/k0335/k033513/app/g09/l1.exe "/home/k0335/k033513/app/g09/scratch/Gau-569163.inp" -scrdir="/home/k0335/k033513/app/g09/scratch/"
 Default is to use a total of  36 processors:
                               36 via shared-memory
                                1 via Linda
 Entering Link 1 = /home/k0335/k033513/app/g09/l1.exe PID=    569164.
  
 Copyright (c) 1988,1990,1992,1993,1995,1998,2003,2009,2013,
            Gaussian, Inc.  All Rights Reserved.
  
 This is part of the Gaussian(R) 09 program.  It is based on
 the Gaussian(R) 03 system (copyright 2003, Gaussian, Inc.),
 the Gaussian(R) 98 system (copyright 1998, Gaussian, Inc.),
 the Gaussian(R) 94 system (copyright 1995, Gaussian, Inc.),
 the Gaussian 92(TM) system (copyright 1992, Gaussian, Inc.),
 the Gaussian 90(TM) system (copyright 1990, Gaussian, Inc.),
 the Gaussian 88(TM) system (copyright 1988, Gaussian, Inc.),
 the Gaussian 86(TM) system (copyright 1986, Carnegie Mellon
 University), and the Gaussian 82(TM) system (copyright 1983,
 Carnegie Mellon University). Gaussian is a federally registered
 trademark of Gaussian, Inc.
  
 This software contains proprietary and confidential information,
 including trade secrets, belonging to Gaussian, Inc.
  
 This software is provided under written license and may be
 used, copied, transmitted, or stored only in accord with that
 written license.
  
 The following legend is applicable only to US Government
 contracts under FAR:
  
                    RESTRICTED RIGHTS LEGEND
  
 Use, reproduction and disclosure by the US Government is
 subject to restrictions as set forth in subparagraphs (a)
 and (c) of the Commercial Computer Software - Restricted
 Rights clause in FAR 52.227-19.
  
 Gaussian, Inc.
 340 Quinnipiac St., Bldg. 40, Wallingford CT 06492
  
  
 ---------------------------------------------------------------
 Warning -- This program may not be used in any manner that
 competes with the business of Gaussian, Inc. or will provide
 assistance to any competitor of Gaussian, Inc.  The licensee
 of this program is prohibited from giving any competitor of
 Gaussian, Inc. access to this program.  By using this program,
 the user acknowledges that Gaussian, Inc. is engaged in the
 business of creating and licensing software in the field of
 computational chemistry and represents and warrants to the
 licensee that it is not a competitor of Gaussian, Inc. and that
 it will not use this program in any manner prohibited above.
 ---------------------------------------------------------------
  

 Cite this work as:
 Gaussian 09, Revision D.01,
 M. J. Frisch, G. W. Trucks, H. B. Schlegel, G. E. Scuseria, 
 M. A. Robb, J. R. Cheeseman, G. Scalmani, V. Barone, B. Mennucci, 
 G. A. Petersson, H. Nakatsuji, M. Caricato, X. Li, H. P. Hratchian, 
 A. F. Izmaylov, J. Bloino, G. Zheng, J. L. Sonnenberg, M. Hada, 
 M. Ehara, K. Toyota, R. Fukuda, J. Hasegawa, M. Ishida, T. Nakajima, 
 Y. Honda, O. Kitao, H. Nakai, T. Vreven, J. A. Montgomery, Jr., 
 J. E. Peralta, F. Ogliaro, M. Bearpark, J. J. Heyd, E. Brothers, 
 K. N. Kudin, V. N. Staroverov, T. Keith, R. Kobayashi, J. Normand, 
 K. Raghavachari, A. Rendell, J. C. Burant, S. S. Iyengar, J. Tomasi, 
 M. Cossi, N. Rega, J. M. Millam, M. Klene, J. E. Knox, J. B. Cross, 
 V. Bakken, C. Adamo, J. Jaramillo, R. Gomperts, R. E. Stratmann, 
 O. Yazyev, A. J. Austin, R. Cammi, C. Pomelli, J. W. Ochterski, 
 R. L. Martin, K. Morokuma, V. G. Zakrzewski, G. A. Voth, 
 P. Salvador, J. J. Dannenberg, S. Dapprich, A. D. Daniels, 
 O. Farkas, J. B. Foresman, J. V. Ortiz, J. Cioslowski, 
 and D. J. Fox, Gaussian, Inc., Wallingford CT, 2013.
 
 ******************************************
 Gaussian 09:  ES64L-G09RevD.01 24-Apr-2013
                 4-Mar-2024 
 ******************************************
 %nprocshared=24
 Will use up to   24 processors via shared memory.
 %mem=40GB
 %rwf=A444117590/A444117590_0.rwf
 %nosave
 %chk=A444117590/A444117590_0.chk
 ----------------------------------------------------------------------
 #p CAM-B3LYP/6-31G(d,p) SCRF=(PCM,Solvent=Generic,Read) NoSymm out=wfn
 ----------------------------------------------------------------------
 1/38=1,40=2/1;
 2/12=2,15=1,17=6,18=5,40=1/2;
 3/5=1,6=6,7=101,11=2,16=1,25=1,30=1,70=2203,72=-2,74=-40/1,2,3;
 4//1;
 5/5=2,38=5/2;
 6/7=2,8=2,9=2,10=2,28=1/1;
 99/5=1,6=100,9=1/99;
 Leave Link    1 at Mon Mar  4 23:13:16 2024, MaxMem=  5368709120 cpu:         1.0
 (Enter /home/k0335/k033513/app/g09/l101.exe)
 ------------------
 Title A444117590_0
 ------------------
 Symbolic Z-matrix:
 Charge =  0 Multiplicity = 1
 C                     1.56861  -3.12255  -2.98212 
 C                     0.35452  -3.17255  -2.41731 
 C                     0.10251  -3.09839  -0.9355 
 N                    -0.43088  -1.78271  -0.61124 
 C                     0.45818  -0.80206  -0.22698 
 O                     1.66829  -1.02046  -0.14135 
 N                    -0.08844   0.4277    0.06672 
 C                    -1.4414    0.69654   0.02042 
 O                    -1.87881   1.77981   0.41411 
 N                    -2.25722  -0.31478  -0.44422 
 C                    -1.78948  -1.5848   -0.71916 
 O                    -2.54035  -2.50443  -1.05478 
 C                    -3.71347  -0.09602  -0.56192 
 C                    -4.08419   1.14378  -1.38416 
 C                    -4.66229   2.2892   -0.81481 
 C                    -4.98392   3.39464  -1.60568 
 C                    -4.72898   3.37545  -2.97469 
 C                    -4.14894   2.25188  -3.55663 
 C                    -3.82752   1.14509  -2.76892 
 C                    -4.50558  -0.31157   0.73692 
 C                    -4.01597   0.01591   2.01115 
 C                    -4.7919   -0.19349   3.15529 
 C                    -6.0716   -0.72952   3.04782 
 C                    -6.58091  -1.05428   1.79509 
 C                    -5.80764  -0.84499   0.65142 
 C                     0.81177   1.49074   0.5029 
 C                     0.89037   1.48184   2.0068 
 C                     1.92846   1.18133   2.80735 
 C                     3.3443    0.78234   2.48316 
 O                     3.74816   1.2587    1.20563 
 C                     4.89995   0.71533   0.70524 
 C                     5.95351   0.21321   1.4721 
 C                     7.09255  -0.3066    0.84551 
 C                     7.18487  -0.32098  -0.55161 
 C                     6.1338    0.19515  -1.31721 
 C                     5.00108   0.71669  -0.68774 
 C                     8.36841  -0.86713  -1.25793 
 O                     8.50837  -0.94001  -2.46529 
 O                     9.32697  -1.2976   -0.41652 
 H                     1.68608  -3.19173  -4.05951 
 H                     2.46932  -2.99921  -2.38535 
 H                    -0.52114  -3.29561  -3.05196 
 H                     1.02233  -3.29046  -0.37069 
 H                    -0.60974  -3.88168  -0.65133 
 H                    -4.08429  -0.90897  -1.20309 
 H                    -4.85538   2.34124   0.2546 
 H                    -5.42759   4.27581  -1.1488 
 H                    -4.9789    4.23859  -3.58496 
 H                    -3.94613   2.23812  -4.62418 
 H                    -3.37658   0.27545  -3.24378 
 H                    -3.03151   0.45138   2.14663 
 H                    -4.39505   0.06902   4.1327 
 H                    -6.6718   -0.88968   3.93896 
 H                    -7.58136  -1.4691    1.70563 
 H                    -6.23208  -1.10194  -0.31808 
 H                     0.42542   2.46389   0.17653 
 H                     1.77827   1.36781   0.01558 
 H                    -0.04186   1.76621   2.49762 
 H                     1.73668   1.21936   3.87994 
 H                     3.99298   1.23367   3.2439 
 H                     3.41686  -0.31081   2.54757 
 H                     5.92429   0.22396   2.55695 
 H                     7.90297  -0.69476   1.45802 
 H                     6.18879   0.19298  -2.404 
 H                     4.18375   1.11027  -1.28795 
 H                     10.03047  -1.62422  -1.01483 
 
 NAtoms=     66 NQM=       66 NQMF=       0 NMMI=      0 NMMIF=      0
                NMic=       0 NMicF=      0.
                    Isotopes and Nuclear Properties:
 (Nuclear quadrupole moments (NQMom) in fm**2, nuclear magnetic moments (NMagM)
  in nuclear magnetons)

  Atom         1           2           3           4           5           6           7           8           9          10
 IAtWgt=          12          12          12          14          12          16          14          12          16          14
 AtmWgt=  12.0000000  12.0000000  12.0000000  14.0030740  12.0000000  15.9949146  14.0030740  12.0000000  15.9949146  14.0030740
 NucSpn=           0           0           0           2           0           0           2           0           0           2
 AtZEff=   0.0000000   0.0000000   0.0000000   0.0000000   0.0000000   0.0000000   0.0000000   0.0000000   0.0000000   0.0000000
 NQMom=    0.0000000   0.0000000   0.0000000   2.0440000   0.0000000   0.0000000   2.0440000   0.0000000   0.0000000   2.0440000
 NMagM=    0.0000000   0.0000000   0.0000000   0.4037610   0.0000000   0.0000000   0.4037610   0.0000000   0.0000000   0.4037610
 AtZNuc=   6.0000000   6.0000000   6.0000000   7.0000000   6.0000000   8.0000000   7.0000000   6.0000000   8.0000000   7.0000000

  Atom        11          12          13          14          15          16          17          18          19          20
 IAtWgt=          12          16          12          12          12          12          12          12          12          12
 AtmWgt=  12.0000000  15.9949146  12.0000000  12.0000000  12.0000000  12.0000000  12.0000000  12.0000000  12.0000000  12.0000000
 NucSpn=           0           0           0           0           0           0           0           0           0           0
 AtZEff=   0.0000000   0.0000000   0.0000000   0.0000000   0.0000000   0.0000000   0.0000000   0.0000000   0.0000000   0.0000000
 NQMom=    0.0000000   0.0000000   0.0000000   0.0000000   0.0000000   0.0000000   0.0000000   0.0000000   0.0000000   0.0000000
 NMagM=    0.0000000   0.0000000   0.0000000   0.0000000   0.0000000   0.0000000   0.0000000   0.0000000   0.0000000   0.0000000
 AtZNuc=   6.0000000   8.0000000   6.0000000   6.0000000   6.0000000   6.0000000   6.0000000   6.0000000   6.0000000   6.0000000

  Atom        21          22          23          24          25          26          27          28          29          30
 IAtWgt=          12          12          12          12          12          12          12          12          12          16
 AtmWgt=  12.0000000  12.0000000  12.0000000  12.0000000  12.0000000  12.0000000  12.0000000  12.0000000  12.0000000  15.9949146
 NucSpn=           0           0           0           0           0           0           0           0           0           0
 AtZEff=   0.0000000   0.0000000   0.0000000   0.0000000   0.0000000   0.0000000   0.0000000   0.0000000   0.0000000   0.0000000
 NQMom=    0.0000000   0.0000000   0.0000000   0.0000000   0.0000000   0.0000000   0.0000000   0.0000000   0.0000000   0.0000000
 NMagM=    0.0000000   0.0000000   0.0000000   0.0000000   0.0000000   0.0000000   0.0000000   0.0000000   0.0000000   0.0000000
 AtZNuc=   6.0000000   6.0000000   6.0000000   6.0000000   6.0000000   6.0000000   6.0000000   6.0000000   6.0000000   8.0000000

  Atom        31          32          33          34          35          36          37          38          39          40
 IAtWgt=          12          12          12          12          12          12          12          16          16           1
 AtmWgt=  12.0000000  12.0000000  12.0000000  12.0000000  12.0000000  12.0000000  12.0000000  15.9949146  15.9949146   1.0078250
 NucSpn=           0           0           0           0           0           0           0           0           0           1
 AtZEff=   0.0000000   0.0000000   0.0000000   0.0000000   0.0000000   0.0000000   0.0000000   0.0000000   0.0000000   0.0000000
 NQMom=    0.0000000   0.0000000   0.0000000   0.0000000   0.0000000   0.0000000   0.0000000   0.0000000   0.0000000   0.0000000
 NMagM=    0.0000000   0.0000000   0.0000000   0.0000000   0.0000000   0.0000000   0.0000000   0.0000000   0.0000000   2.7928460
 AtZNuc=   6.0000000   6.0000000   6.0000000   6.0000000   6.0000000   6.0000000   6.0000000   8.0000000   8.0000000   1.0000000

  Atom        41          42          43          44          45          46          47          48          49          50
 IAtWgt=           1           1           1           1           1           1           1           1           1           1
 AtmWgt=   1.0078250   1.0078250   1.0078250   1.0078250   1.0078250   1.0078250   1.0078250   1.0078250   1.0078250   1.0078250
 NucSpn=           1           1           1           1           1           1           1           1           1           1
 AtZEff=   0.0000000   0.0000000   0.0000000   0.0000000   0.0000000   0.0000000   0.0000000   0.0000000   0.0000000   0.0000000
 NQMom=    0.0000000   0.0000000   0.0000000   0.0000000   0.0000000   0.0000000   0.0000000   0.0000000   0.0000000   0.0000000
 NMagM=    2.7928460   2.7928460   2.7928460   2.7928460   2.7928460   2.7928460   2.7928460   2.7928460   2.7928460   2.7928460
 AtZNuc=   1.0000000   1.0000000   1.0000000   1.0000000   1.0000000   1.0000000   1.0000000   1.0000000   1.0000000   1.0000000

  Atom        51          52          53          54          55          56          57          58          59          60
 IAtWgt=           1           1           1           1           1           1           1           1           1           1
 AtmWgt=   1.0078250   1.0078250   1.0078250   1.0078250   1.0078250   1.0078250   1.0078250   1.0078250   1.0078250   1.0078250
 NucSpn=           1           1           1           1           1           1           1           1           1           1
 AtZEff=   0.0000000   0.0000000   0.0000000   0.0000000   0.0000000   0.0000000   0.0000000   0.0000000   0.0000000   0.0000000
 NQMom=    0.0000000   0.0000000   0.0000000   0.0000000   0.0000000   0.0000000   0.0000000   0.0000000   0.0000000   0.0000000
 NMagM=    2.7928460   2.7928460   2.7928460   2.7928460   2.7928460   2.7928460   2.7928460   2.7928460   2.7928460   2.7928460
 AtZNuc=   1.0000000   1.0000000   1.0000000   1.0000000   1.0000000   1.0000000   1.0000000   1.0000000   1.0000000   1.0000000

  Atom        61          62          63          64          65          66
 IAtWgt=           1           1           1           1           1           1
 AtmWgt=   1.0078250   1.0078250   1.0078250   1.0078250   1.0078250   1.0078250
 NucSpn=           1           1           1           1           1           1
 AtZEff=   0.0000000   0.0000000   0.0000000   0.0000000   0.0000000   0.0000000
 NQMom=    0.0000000   0.0000000   0.0000000   0.0000000   0.0000000   0.0000000
 NMagM=    2.7928460   2.7928460   2.7928460   2.7928460   2.7928460   2.7928460
 AtZNuc=   1.0000000   1.0000000   1.0000000   1.0000000   1.0000000   1.0000000
 Leave Link  101 at Mon Mar  4 23:13:16 2024, MaxMem=  5368709120 cpu:         1.2
 (Enter /home/k0335/k033513/app/g09/l202.exe)
 Symmetry turned off by external request.
 Stoichiometry    C30H27N3O6
 Framework group  C1[X(C30H27N3O6)]
 Deg. of freedom   192
 Full point group                 C1      NOp   1
                          Input orientation:                          
 ---------------------------------------------------------------------
 Center     Atomic      Atomic             Coordinates (Angstroms)
 Number     Number       Type             X           Y           Z
 ---------------------------------------------------------------------
      1          6           0        1.568614   -3.122553   -2.982116
      2          6           0        0.354523   -3.172550   -2.417313
      3          6           0        0.102511   -3.098393   -0.935501
      4          7           0       -0.430878   -1.782711   -0.611236
      5          6           0        0.458179   -0.802057   -0.226979
      6          8           0        1.668290   -1.020461   -0.141354
      7          7           0       -0.088440    0.427699    0.066721
      8          6           0       -1.441400    0.696543    0.020417
      9          8           0       -1.878809    1.779812    0.414114
     10          7           0       -2.257224   -0.314775   -0.444217
     11          6           0       -1.789481   -1.584801   -0.719159
     12          8           0       -2.540354   -2.504427   -1.054783
     13          6           0       -3.713474   -0.096016   -0.561921
     14          6           0       -4.084189    1.143778   -1.384157
     15          6           0       -4.662294    2.289198   -0.814808
     16          6           0       -4.983922    3.394643   -1.605679
     17          6           0       -4.728978    3.375453   -2.974689
     18          6           0       -4.148936    2.251877   -3.556634
     19          6           0       -3.827520    1.145089   -2.768920
     20          6           0       -4.505582   -0.311569    0.736923
     21          6           0       -4.015966    0.015913    2.011149
     22          6           0       -4.791895   -0.193487    3.155292
     23          6           0       -6.071596   -0.729517    3.047816
     24          6           0       -6.580914   -1.054279    1.795094
     25          6           0       -5.807645   -0.844990    0.651422
     26          6           0        0.811773    1.490741    0.502899
     27          6           0        0.890368    1.481840    2.006803
     28          6           0        1.928464    1.181331    2.807353
     29          6           0        3.344303    0.782343    2.483164
     30          8           0        3.748160    1.258695    1.205627
     31          6           0        4.899951    0.715328    0.705241
     32          6           0        5.953514    0.213213    1.472104
     33          6           0        7.092551   -0.306601    0.845514
     34          6           0        7.184875   -0.320976   -0.551608
     35          6           0        6.133798    0.195152   -1.317206
     36          6           0        5.001078    0.716690   -0.687739
     37          6           0        8.368411   -0.867131   -1.257933
     38          8           0        8.508373   -0.940014   -2.465294
     39          8           0        9.326967   -1.297604   -0.416523
     40          1           0        1.686077   -3.191733   -4.059510
     41          1           0        2.469323   -2.999206   -2.385346
     42          1           0       -0.521138   -3.295612   -3.051961
     43          1           0        1.022327   -3.290462   -0.370686
     44          1           0       -0.609735   -3.881681   -0.651332
     45          1           0       -4.084293   -0.908966   -1.203092
     46          1           0       -4.855380    2.341237    0.254600
     47          1           0       -5.427591    4.275805   -1.148800
     48          1           0       -4.978897    4.238591   -3.584958
     49          1           0       -3.946133    2.238116   -4.624180
     50          1           0       -3.376577    0.275450   -3.243775
     51          1           0       -3.031512    0.451379    2.146630
     52          1           0       -4.395050    0.069022    4.132705
     53          1           0       -6.671804   -0.889677    3.938955
     54          1           0       -7.581356   -1.469103    1.705630
     55          1           0       -6.232075   -1.101944   -0.318077
     56          1           0        0.425420    2.463894    0.176534
     57          1           0        1.778265    1.367813    0.015584
     58          1           0       -0.041862    1.766214    2.497623
     59          1           0        1.736684    1.219362    3.879941
     60          1           0        3.992977    1.233666    3.243899
     61          1           0        3.416858   -0.310814    2.547569
     62          1           0        5.924290    0.223957    2.556945
     63          1           0        7.902966   -0.694760    1.458015
     64          1           0        6.188790    0.192981   -2.404004
     65          1           0        4.183748    1.110266   -1.287947
     66          1           0       10.030472   -1.624221   -1.014825
 ---------------------------------------------------------------------
 Rotational constants (GHZ):      0.1763130      0.0406194      0.0396545
 Leave Link  202 at Mon Mar  4 23:13:17 2024, MaxMem=  5368709120 cpu:         0.1
 (Enter /home/k0335/k033513/app/g09/l301.exe)
 Standard basis: 6-31G(d,p) (6D, 7F)
 Ernie: Thresh=  0.10000D-02 Tol=  0.10000D-05 Strict=F.
   720 basis functions,  1281 primitive gaussians,   720 cartesian basis functions
   138 alpha electrons      138 beta electrons
       nuclear repulsion energy      4184.0463775932 Hartrees.
 IExCor=20419 DFT=T Ex+Corr=CAM-B3LYP ExCW=0 ScaHFX=  1.000000
 ScaDFX=  1.000000  1.000000  1.000000  0.810000 ScalE2=  1.000000  1.000000
 IRadAn=      0 IRanWt=     -1 IRanGd=            0 ICorTp=0 IEmpDi=  4
  HFx wShort=  0.000000 wLong=  0.330000 cFull=  0.190000 cShort=  0.000000 cLong=  0.460000
  DFx wShort=  0.000000 wLong=  0.330000 cFull=  0.190000 cShort=  0.000000 cLong=  0.460000
 NAtoms=   66 NActive=   66 NUniq=   66 SFac= 1.00D+00 NAtFMM=   60 NAOKFM=T Big=T
 Integral buffers will be    131072 words long.
 Raffenetti 2 integral format.
 Two-electron integral symmetry is turned off.
 Using the following non-standard input for PCM:
 eps=2.05
 --- end of non-standard input.
 ------------------------------------------------------------------------------
 Polarizable Continuum Model (PCM)
 =================================
 Model                : PCM (using non-symmetric T matrix).
 Atomic radii         : UFF (Universal Force Field).
 Polarization charges : Total charges.
 Charge compensation  : None.
 Solution method      : On-the-fly selection.
 Cavity type          : Scaled VdW (van der Waals Surface) (Alpha=1.100).
 Cavity algorithm     : GePol (No added spheres)
                        Default sphere list used, NSphG=   66.
                        Lebedev-Laikov grids with approx.  5.0 points / Ang**2.
                        Smoothing algorithm: Karplus/York (Gamma=1.0000).
                        Polarization charges: spherical gaussians, with
                                              point-specific exponents (IZeta= 3).
                        Self-potential: point-specific (ISelfS= 7).
                        Self-field    : sphere-specific E.n sum rule (ISelfD= 2).
 Solvent              : Generic,
                        Eps                           =   2.050000
                        Eps(infinity)                 =   0.000000
                        RSolv                         =   0.000000 Ang.
                        Molar volume                  =   0.000000 cm**3/mol
                        Thermal expansion coefficient =   0.000000 K**-1
                        Absolute temperature          = 298.150000 K
                        Numeral density               =   0.000000 Ang**-3
                        Hydrogen bond acidity         =   0.000000
                        Hydrogen bond basicity        =   0.000000
                        Surface tension at interface  =   0.000000 (cal/mol)*Ang**-2
                        Carbon aromaticity            =   0.000000
                        Electronegative halogenicity  =   0.000000
 ------------------------------------------------------------------------------
 GePol: Number of generator spheres                  =      66
 GePol: Total number of spheres                      =      66
 GePol: Number of exposed spheres                    =      66 (100.00%)
 GePol: Number of points                             =    4835
 GePol: Average weight of points                     =       0.13
 GePol: Minimum weight of points                     =   0.91D-11
 GePol: Maximum weight of points                     =    0.20577
 GePol: Number of points with low weight             =     329
 GePol: Fraction of low-weight points (<1% of avg)   =       6.80%
 GePol: Cavity surface area                          =    615.071 Ang**2
 GePol: Cavity volume                                =    701.747 Ang**3
 Leave Link  301 at Mon Mar  4 23:13:18 2024, MaxMem=  5368709120 cpu:         1.0
 (Enter /home/k0335/k033513/app/g09/l302.exe)
 NPDir=0 NMtPBC=     1 NCelOv=     1 NCel=       1 NClECP=     1 NCelD=      1
         NCelK=      1 NCelE2=     1 NClLst=     1 CellRange=     0.0.
 One-electron integrals computed using PRISM.
 NBasis=   720 RedAO= T EigKep=  4.17D-04  NBF=   720
 NBsUse=   720 1.00D-06 EigRej= -1.00D+00 NBFU=   720
 Precomputing XC quadrature grid using
 IXCGrd= 4 IRadAn=           0 IRanWt=          -1 IRanGd=           0 AccXCQ= 0.00D+00.
 Generated NRdTot=       0 NPtTot=           0 NUsed=           0 NTot=          32
 NSgBfM=   666   667   670   673   673 MxSgAt=    66 MxSgA2=    66.
 Leave Link  302 at Mon Mar  4 23:13:20 2024, MaxMem=  5368709120 cpu:        19.4
 (Enter /home/k0335/k033513/app/g09/l303.exe)
 DipDrv:  MaxL=1.
 Leave Link  303 at Mon Mar  4 23:13:20 2024, MaxMem=  5368709120 cpu:         1.4
 (Enter /home/k0335/k033513/app/g09/l401.exe)
 ExpMin= 1.61D-01 ExpMax= 5.48D+03 ExpMxC= 8.25D+02 IAcc=1 IRadAn=         1 AccDes= 0.00D+00
 Harris functional with IExCor=20419 and IRadAn=       1 diagonalized for initial guess.
 HarFok:  IExCor=20419 AccDes= 0.00D+00 IRadAn=         1 IDoV= 1 UseB2=F ITyADJ=14
 ICtDFT=  3500011 ScaDFX=  1.000000  1.000000  1.000000  1.000000
 FoFCou: FMM=F IPFlag=           0 FMFlag=      100000 FMFlg1=        2001
         NFxFlg=           0 DoJE=T BraDBF=F KetDBF=T FulRan=T
         wScrn=  0.000000 ICntrl=     500 IOpCl=  0 I1Cent=   200000004 NGrid=           0
         NMat0=    1 NMatS0=      1 NMatT0=    0 NMatD0=    1 NMtDS0=    0 NMtDT0=    0
 Symmetry not used in FoFCou.
 Harris En= -1707.30348271759    
 JPrj=0 DoOrth=F DoCkMO=F.
 Leave Link  401 at Mon Mar  4 23:13:22 2024, MaxMem=  5368709120 cpu:        21.2
 (Enter /home/k0335/k033513/app/g09/l502.exe)
 Closed shell SCF:
 Using DIIS extrapolation, IDIIS=  1040.
 Two-electron integral symmetry not used.
 IVT=     1595482 IEndB=     1595482 NGot=  5368709120 MDV=  5367649399
 LenX=  5367649399 LenY=  5367130279
 Requested convergence on RMS density matrix=1.00D-08 within 128 cycles.
 Requested convergence on MAX density matrix=1.00D-06.
 Requested convergence on             energy=1.00D-06.
 No special actions if energy rises.
 Fock matrices will be formed incrementally for  20 cycles.

 Cycle   1  Pass 1  IDiag  1:
 FoFJK:  IHMeth= 1 ICntrl=       0 DoSepK=T KAlg= 0 I1Cent=   0 FoldK=F
 IRaf=         1 NMat=   1 IRICut=       1 DoRegI=T DoRafI=F ISym2E= 0.
 FoFCou: FMM=T IPFlag=           0 FMFlag=      100000 FMFlg1=        2001
         NFxFlg=           0 DoJE=T BraDBF=F KetDBF=F FulRan=T
         wScrn=  0.000000 ICntrl=     500 IOpCl=  0 I1Cent=           0 NGrid=           0
         NMat0=    1 NMatS0=      1 NMatT0=    0 NMatD0=    1 NMtDS0=    0 NMtDT0=    0
 Symmetry not used in FoFCou.
 FMM levels:  10  Number of levels for PrismC:   9
 Inv3:  Mode=1 IEnd=    70131675.
 Iteration    1 A*A^-1 deviation from unit magnitude is 9.33D-15 for   4826.
 Iteration    1 A*A^-1 deviation from orthogonality  is 7.00D-15 for   4821   4699.
 Iteration    1 A^-1*A deviation from unit magnitude is 8.88D-15 for   4826.
 Iteration    1 A^-1*A deviation from orthogonality  is 3.98D-15 for   4832   1927.
 E= -1773.76809738093    
 DIIS: error= 6.34D-02 at cycle   1 NSaved=   1.
 NSaved= 1 IEnMin= 1 EnMin= -1773.76809738093     IErMin= 1 ErrMin= 6.34D-02
 ErrMax= 6.34D-02  0.00D+00 EMaxC= 1.00D-01 BMatC= 1.39D+00 BMatP= 1.39D+00
 IDIUse=3 WtCom= 3.66D-01 WtEn= 6.34D-01
 Coeff-Com:  0.100D+01
 Coeff-En:   0.100D+01
 Coeff:      0.100D+01
 Gap=     0.500 Goal=   None    Shift=    0.000
 GapD=    0.500 DampG=2.000 DampE=0.500 DampFc=1.0000 IDamp=-1.
 RMSDP=2.20D-03 MaxDP=1.85D-01              OVMax= 1.26D-01

 Cycle   2  Pass 1  IDiag  1:
 RMSU=  2.20D-03    CP:  1.00D+00
 E= -1773.73735706772     Delta-E=        0.030740313208 Rises=F Damp=F
 DIIS: error= 2.14D-02 at cycle   2 NSaved=   2.
 NSaved= 2 IEnMin= 1 EnMin= -1773.76809738093     IErMin= 2 ErrMin= 2.14D-02
 ErrMax= 2.14D-02  0.00D+00 EMaxC= 1.00D-01 BMatC= 6.34D-01 BMatP= 1.39D+00
 IDIUse=3 WtCom= 7.86D-01 WtEn= 2.14D-01
 Coeff-Com:  0.368D+00 0.632D+00
 Coeff-En:   0.518D+00 0.482D+00
 Coeff:      0.400D+00 0.600D+00
 Gap=     0.351 Goal=   None    Shift=    0.000
 RMSDP=1.53D-03 MaxDP=1.68D-01 DE= 3.07D-02 OVMax= 1.26D-01

 Cycle   3  Pass 1  IDiag  1:
 RMSU=  9.04D-04    CP:  9.99D-01  4.42D-01
 E= -1774.09373411193     Delta-E=       -0.356377044212 Rises=F Damp=F
 DIIS: error= 1.40D-02 at cycle   3 NSaved=   3.
 NSaved= 3 IEnMin= 3 EnMin= -1774.09373411193     IErMin= 3 ErrMin= 1.40D-02
 ErrMax= 1.40D-02  0.00D+00 EMaxC= 1.00D-01 BMatC= 2.11D-01 BMatP= 6.34D-01
 IDIUse=3 WtCom= 8.60D-01 WtEn= 1.40D-01
 Coeff-Com:  0.512D-01 0.360D+00 0.589D+00
 Coeff-En:   0.000D+00 0.255D+00 0.745D+00
 Coeff:      0.440D-01 0.345D+00 0.611D+00
 Gap=     0.299 Goal=   None    Shift=    0.000
 RMSDP=6.39D-04 MaxDP=6.85D-02 DE=-3.56D-01 OVMax= 9.40D-02

 Cycle   4  Pass 1  IDiag  1:
 RMSU=  3.23D-04    CP:  1.00D+00  6.13D-01  5.56D-01
 E= -1774.24097900345     Delta-E=       -0.147244891515 Rises=F Damp=F
 DIIS: error= 4.43D-03 at cycle   4 NSaved=   4.
 NSaved= 4 IEnMin= 4 EnMin= -1774.24097900345     IErMin= 4 ErrMin= 4.43D-03
 ErrMax= 4.43D-03  0.00D+00 EMaxC= 1.00D-01 BMatC= 1.83D-02 BMatP= 2.11D-01
 IDIUse=3 WtCom= 9.56D-01 WtEn= 4.43D-02
 Coeff-Com:  0.284D-02 0.140D+00 0.323D+00 0.534D+00
 Coeff-En:   0.000D+00 0.000D+00 0.000D+00 0.100D+01
 Coeff:      0.271D-02 0.133D+00 0.309D+00 0.555D+00
 Gap=     0.296 Goal=   None    Shift=    0.000
 RMSDP=1.86D-04 MaxDP=1.80D-02 DE=-1.47D-01 OVMax= 1.88D-02

 Cycle   5  Pass 1  IDiag  1:
 RMSU=  8.12D-05    CP:  1.00D+00  6.15D-01  6.58D-01  5.72D-01
 E= -1774.25376999464     Delta-E=       -0.012790991188 Rises=F Damp=F
 DIIS: error= 6.15D-04 at cycle   5 NSaved=   5.
 NSaved= 5 IEnMin= 5 EnMin= -1774.25376999464     IErMin= 5 ErrMin= 6.15D-04
 ErrMax= 6.15D-04  0.00D+00 EMaxC= 1.00D-01 BMatC= 8.12D-04 BMatP= 1.83D-02
 IDIUse=3 WtCom= 9.94D-01 WtEn= 6.15D-03
 Coeff-Com: -0.624D-03 0.356D-01 0.934D-01 0.250D+00 0.622D+00
 Coeff-En:   0.000D+00 0.000D+00 0.000D+00 0.000D+00 0.100D+01
 Coeff:     -0.620D-03 0.354D-01 0.928D-01 0.248D+00 0.624D+00
 Gap=     0.294 Goal=   None    Shift=    0.000
 RMSDP=4.29D-05 MaxDP=4.81D-03 DE=-1.28D-02 OVMax= 5.38D-03

 Cycle   6  Pass 1  IDiag  1:
 RMSU=  3.19D-05    CP:  1.00D+00  6.18D-01  6.54D-01  6.23D-01  7.31D-01
 E= -1774.25432828716     Delta-E=       -0.000558292523 Rises=F Damp=F
 DIIS: error= 1.92D-04 at cycle   6 NSaved=   6.
 NSaved= 6 IEnMin= 6 EnMin= -1774.25432828716     IErMin= 6 ErrMin= 1.92D-04
 ErrMax= 1.92D-04  0.00D+00 EMaxC= 1.00D-01 BMatC= 7.88D-05 BMatP= 8.12D-04
 IDIUse=3 WtCom= 9.98D-01 WtEn= 1.92D-03
 Coeff-Com: -0.612D-03-0.795D-02-0.112D-01 0.234D-01 0.284D+00 0.712D+00
 Coeff-En:   0.000D+00 0.000D+00 0.000D+00 0.000D+00 0.000D+00 0.100D+01
 Coeff:     -0.611D-03-0.793D-02-0.112D-01 0.234D-01 0.284D+00 0.713D+00
 Gap=     0.295 Goal=   None    Shift=    0.000
 RMSDP=1.43D-05 MaxDP=1.58D-03 DE=-5.58D-04 OVMax= 2.71D-03

 Cycle   7  Pass 1  IDiag  1:
 RMSU=  6.71D-06    CP:  1.00D+00  6.17D-01  6.57D-01  6.36D-01  8.42D-01
                    CP:  7.86D-01
 E= -1774.25439994115     Delta-E=       -0.000071653990 Rises=F Damp=F
 DIIS: error= 5.21D-05 at cycle   7 NSaved=   7.
 NSaved= 7 IEnMin= 7 EnMin= -1774.25439994115     IErMin= 7 ErrMin= 5.21D-05
 ErrMax= 5.21D-05  0.00D+00 EMaxC= 1.00D-01 BMatC= 3.84D-06 BMatP= 7.88D-05
 IDIUse=1 WtCom= 1.00D+00 WtEn= 0.00D+00
 Coeff-Com: -0.195D-03-0.465D-02-0.774D-02-0.107D-02 0.819D-01 0.289D+00
 Coeff-Com:  0.643D+00
 Coeff:     -0.195D-03-0.465D-02-0.774D-02-0.107D-02 0.819D-01 0.289D+00
 Coeff:      0.643D+00
 Gap=     0.295 Goal=   None    Shift=    0.000
 RMSDP=3.26D-06 MaxDP=2.74D-04 DE=-7.17D-05 OVMax= 3.77D-04

 Cycle   8  Pass 1  IDiag  1:
 RMSU=  2.76D-06    CP:  1.00D+00  6.17D-01  6.58D-01  6.37D-01  8.48D-01
                    CP:  8.31D-01  9.26D-01
 E= -1774.25440352013     Delta-E=       -0.000003578986 Rises=F Damp=F
 DIIS: error= 3.91D-05 at cycle   8 NSaved=   8.
 NSaved= 8 IEnMin= 8 EnMin= -1774.25440352013     IErMin= 8 ErrMin= 3.91D-05
 ErrMax= 3.91D-05  0.00D+00 EMaxC= 1.00D-01 BMatC= 4.99D-07 BMatP= 3.84D-06
 IDIUse=1 WtCom= 1.00D+00 WtEn= 0.00D+00
 Coeff-Com:  0.959D-05-0.839D-03-0.155D-02-0.503D-02-0.160D-01 0.887D-02
 Coeff-Com:  0.248D+00 0.766D+00
 Coeff:      0.959D-05-0.839D-03-0.155D-02-0.503D-02-0.160D-01 0.887D-02
 Coeff:      0.248D+00 0.766D+00
 Gap=     0.295 Goal=   None    Shift=    0.000
 RMSDP=1.48D-06 MaxDP=1.64D-04 DE=-3.58D-06 OVMax= 2.36D-04

 Cycle   9  Pass 1  IDiag  1:
 RMSU=  1.01D-06    CP:  1.00D+00  6.16D-01  6.58D-01  6.37D-01  8.52D-01
                    CP:  8.48D-01  1.04D+00  9.78D-01
 E= -1774.25440407066     Delta-E=       -0.000000550526 Rises=F Damp=F
 DIIS: error= 1.57D-05 at cycle   9 NSaved=   9.
 NSaved= 9 IEnMin= 9 EnMin= -1774.25440407066     IErMin= 9 ErrMin= 1.57D-05
 ErrMax= 1.57D-05  0.00D+00 EMaxC= 1.00D-01 BMatC= 1.16D-07 BMatP= 4.99D-07
 IDIUse=1 WtCom= 1.00D+00 WtEn= 0.00D+00
 Coeff-Com:  0.305D-04 0.290D-03 0.467D-03-0.272D-02-0.237D-01-0.424D-01
 Coeff-Com:  0.311D-01 0.409D+00 0.628D+00
 Coeff:      0.305D-04 0.290D-03 0.467D-03-0.272D-02-0.237D-01-0.424D-01
 Coeff:      0.311D-01 0.409D+00 0.628D+00
 Gap=     0.295 Goal=   None    Shift=    0.000
 RMSDP=6.55D-07 MaxDP=6.16D-05 DE=-5.51D-07 OVMax= 1.20D-04

 Cycle  10  Pass 1  IDiag  1:
 RMSU=  3.82D-07    CP:  1.00D+00  6.16D-01  6.58D-01  6.37D-01  8.53D-01
                    CP:  8.55D-01  1.08D+00  1.10D+00  8.27D-01
 E= -1774.25440418271     Delta-E=       -0.000000112051 Rises=F Damp=F
 DIIS: error= 5.33D-06 at cycle  10 NSaved=  10.
 NSaved=10 IEnMin=10 EnMin= -1774.25440418271     IErMin=10 ErrMin= 5.33D-06
 ErrMax= 5.33D-06  0.00D+00 EMaxC= 1.00D-01 BMatC= 9.38D-09 BMatP= 1.16D-07
 IDIUse=1 WtCom= 1.00D+00 WtEn= 0.00D+00
 Coeff-Com:  0.973D-05 0.220D-03 0.428D-03-0.381D-03-0.711D-02-0.165D-01
 Coeff-Com: -0.179D-01 0.697D-01 0.260D+00 0.712D+00
 Coeff:      0.973D-05 0.220D-03 0.428D-03-0.381D-03-0.711D-02-0.165D-01
 Coeff:     -0.179D-01 0.697D-01 0.260D+00 0.712D+00
 Gap=     0.295 Goal=   None    Shift=    0.000
 RMSDP=1.88D-07 MaxDP=1.82D-05 DE=-1.12D-07 OVMax= 3.68D-05

 Cycle  11  Pass 1  IDiag  1:
 RMSU=  1.29D-07    CP:  1.00D+00  6.16D-01  6.58D-01  6.37D-01  8.53D-01
                    CP:  8.56D-01  1.09D+00  1.12D+00  9.17D-01  9.58D-01
 E= -1774.25440419324     Delta-E=       -0.000000010527 Rises=F Damp=F
 DIIS: error= 9.66D-07 at cycle  11 NSaved=  11.
 NSaved=11 IEnMin=11 EnMin= -1774.25440419324     IErMin=11 ErrMin= 9.66D-07
 ErrMax= 9.66D-07  0.00D+00 EMaxC= 1.00D-01 BMatC= 1.06D-09 BMatP= 9.38D-09
 IDIUse=1 WtCom= 1.00D+00 WtEn= 0.00D+00
 Coeff-Com:  0.161D-05 0.512D-04 0.124D-03 0.162D-03 0.856D-04-0.131D-02
 Coeff-Com: -0.111D-01-0.204D-01 0.191D-01 0.253D+00 0.760D+00
 Coeff:      0.161D-05 0.512D-04 0.124D-03 0.162D-03 0.856D-04-0.131D-02
 Coeff:     -0.111D-01-0.204D-01 0.191D-01 0.253D+00 0.760D+00
 Gap=     0.295 Goal=   None    Shift=    0.000
 RMSDP=7.87D-08 MaxDP=4.72D-06 DE=-1.05D-08 OVMax= 1.75D-05

 Cycle  12  Pass 1  IDiag  1:
 RMSU=  4.61D-08    CP:  1.00D+00  6.16D-01  6.58D-01  6.37D-01  8.53D-01
                    CP:  8.57D-01  1.09D+00  1.13D+00  9.42D-01  1.06D+00
                    CP:  9.57D-01
 E= -1774.25440419475     Delta-E=       -0.000000001513 Rises=F Damp=F
 DIIS: error= 4.12D-07 at cycle  12 NSaved=  12.
 NSaved=12 IEnMin=12 EnMin= -1774.25440419475     IErMin=12 ErrMin= 4.12D-07
 ErrMax= 4.12D-07  0.00D+00 EMaxC= 1.00D-01 BMatC= 1.58D-10 BMatP= 1.06D-09
 IDIUse=1 WtCom= 1.00D+00 WtEn= 0.00D+00
 Coeff-Com: -0.557D-06-0.725D-05 0.155D-05 0.125D-03 0.102D-02 0.167D-02
 Coeff-Com: -0.239D-02-0.172D-01-0.276D-01 0.580D-02 0.301D+00 0.737D+00
 Coeff:     -0.557D-06-0.725D-05 0.155D-05 0.125D-03 0.102D-02 0.167D-02
 Coeff:     -0.239D-02-0.172D-01-0.276D-01 0.580D-02 0.301D+00 0.737D+00
 Gap=     0.295 Goal=   None    Shift=    0.000
 RMSDP=3.05D-08 MaxDP=1.73D-06 DE=-1.51D-09 OVMax= 6.92D-06

 Cycle  13  Pass 1  IDiag  1:
 RMSU=  2.06D-08    CP:  1.00D+00  6.16D-01  6.58D-01  6.37D-01  8.53D-01
                    CP:  8.57D-01  1.09D+00  1.13D+00  9.49D-01  1.09D+00
                    CP:  1.07D+00  9.49D-01
 E= -1774.25440419502     Delta-E=       -0.000000000272 Rises=F Damp=F
 DIIS: error= 1.41D-07 at cycle  13 NSaved=  13.
 NSaved=13 IEnMin=13 EnMin= -1774.25440419502     IErMin=13 ErrMin= 1.41D-07
 ErrMax= 1.41D-07  0.00D+00 EMaxC= 1.00D-01 BMatC= 3.23D-11 BMatP= 1.58D-10
 IDIUse=1 WtCom= 1.00D+00 WtEn= 0.00D+00
 Coeff-Com: -0.665D-06-0.114D-04-0.173D-04 0.360D-04 0.469D-03 0.100D-02
 Coeff-Com:  0.677D-03-0.444D-02-0.159D-01-0.386D-01 0.172D-01 0.354D+00
 Coeff-Com:  0.686D+00
 Coeff:     -0.665D-06-0.114D-04-0.173D-04 0.360D-04 0.469D-03 0.100D-02
 Coeff:      0.677D-03-0.444D-02-0.159D-01-0.386D-01 0.172D-01 0.354D+00
 Coeff:      0.686D+00
 Gap=     0.295 Goal=   None    Shift=    0.000
 RMSDP=1.22D-08 MaxDP=7.22D-07 DE=-2.72D-10 OVMax= 2.79D-06

 Cycle  14  Pass 1  IDiag  1:
 RMSU=  7.53D-09    CP:  1.00D+00  6.16D-01  6.58D-01  6.37D-01  8.53D-01
                    CP:  8.57D-01  1.09D+00  1.13D+00  9.51D-01  1.10D+00
                    CP:  1.10D+00  1.11D+00  9.03D-01
 E= -1774.25440419499     Delta-E=        0.000000000030 Rises=F Damp=F
 DIIS: error= 6.13D-08 at cycle  14 NSaved=  14.
 NSaved=14 IEnMin=13 EnMin= -1774.25440419502     IErMin=14 ErrMin= 6.13D-08
 ErrMax= 6.13D-08  0.00D+00 EMaxC= 1.00D-01 BMatC= 2.83D-12 BMatP= 3.23D-11
 IDIUse=1 WtCom= 1.00D+00 WtEn= 0.00D+00
 Coeff-Com: -0.138D-06-0.307D-05-0.669D-05-0.779D-05-0.501D-06 0.799D-04
 Coeff-Com:  0.545D-03 0.994D-03-0.131D-02-0.135D-01-0.357D-01 0.987D-02
 Coeff-Com:  0.223D+00 0.816D+00
 Coeff:     -0.138D-06-0.307D-05-0.669D-05-0.779D-05-0.501D-06 0.799D-04
 Coeff:      0.545D-03 0.994D-03-0.131D-02-0.135D-01-0.357D-01 0.987D-02
 Coeff:      0.223D+00 0.816D+00
 Gap=     0.295 Goal=   None    Shift=    0.000
 RMSDP=4.65D-09 MaxDP=2.48D-07 DE= 3.00D-11 OVMax= 1.12D-06

 Error on total polarization charges =  0.00672
 SCF Done:  E(RCAM-B3LYP) =  -1774.25440419     A.U. after   14 cycles
            NFock= 14  Conv=0.46D-08     -V/T= 2.0093
 KE= 1.757925718079D+03 PE=-1.249822989497D+04 EE= 4.782003395106D+03
 Leave Link  502 at Mon Mar  4 23:14:41 2024, MaxMem=  5368709120 cpu:      1681.0
 (Enter /home/k0335/k033513/app/g09/l601.exe)
 Copying SCF densities to generalized density rwf, IOpCl= 0 IROHF=0.

 **********************************************************************

            Population analysis using the SCF density.

 **********************************************************************

 Alpha  occ. eigenvalues --  -19.26803 -19.25857 -19.21699 -19.21593 -19.21460
 Alpha  occ. eigenvalues --  -19.20784 -14.48838 -14.48435 -14.48294 -10.42991
 Alpha  occ. eigenvalues --  -10.42913 -10.42689 -10.39640 -10.33529 -10.32664
 Alpha  occ. eigenvalues --  -10.32477 -10.30844 -10.30467 -10.28072 -10.28057
 Alpha  occ. eigenvalues --  -10.27762 -10.27632 -10.27612 -10.27578 -10.27246
 Alpha  occ. eigenvalues --  -10.27155 -10.26798 -10.26740 -10.26667 -10.26579
 Alpha  occ. eigenvalues --  -10.26515 -10.26504 -10.26452 -10.26334 -10.26302
 Alpha  occ. eigenvalues --  -10.26163 -10.26130 -10.26063 -10.25966  -1.19648
 Alpha  occ. eigenvalues --   -1.18817  -1.15488  -1.15010  -1.14784  -1.08806
 Alpha  occ. eigenvalues --   -1.06465  -1.04198  -1.03902  -0.94751  -0.94498
 Alpha  occ. eigenvalues --   -0.93380  -0.89420  -0.88035  -0.86889  -0.85122
 Alpha  occ. eigenvalues --   -0.83695  -0.82623  -0.82487  -0.82251  -0.82050
 Alpha  occ. eigenvalues --   -0.79658  -0.78638  -0.77308  -0.73749  -0.73501
 Alpha  occ. eigenvalues --   -0.71910  -0.71197  -0.69778  -0.68368  -0.67958
 Alpha  occ. eigenvalues --   -0.67067  -0.66234  -0.65563  -0.64208  -0.63103
 Alpha  occ. eigenvalues --   -0.61609  -0.61013  -0.60040  -0.58517  -0.58376
 Alpha  occ. eigenvalues --   -0.57649  -0.56387  -0.55992  -0.55516  -0.55077
 Alpha  occ. eigenvalues --   -0.54525  -0.54149  -0.53593  -0.53392  -0.52705
 Alpha  occ. eigenvalues --   -0.52515  -0.52120  -0.52010  -0.51908  -0.51300
 Alpha  occ. eigenvalues --   -0.51164  -0.50738  -0.50271  -0.49980  -0.49554
 Alpha  occ. eigenvalues --   -0.48588  -0.48437  -0.48252  -0.47999  -0.47779
 Alpha  occ. eigenvalues --   -0.47274  -0.46015  -0.45873  -0.45430  -0.44559
 Alpha  occ. eigenvalues --   -0.44427  -0.43803  -0.43324  -0.42657  -0.42296
 Alpha  occ. eigenvalues --   -0.41584  -0.41491  -0.40644  -0.40495  -0.40376
 Alpha  occ. eigenvalues --   -0.39703  -0.38404  -0.37833  -0.37681  -0.37535
 Alpha  occ. eigenvalues --   -0.35274  -0.34631  -0.34595  -0.34156  -0.33766
 Alpha  occ. eigenvalues --   -0.32413  -0.31941  -0.31394  -0.30912  -0.30600
 Alpha  occ. eigenvalues --   -0.30204  -0.28961  -0.28803
 Alpha virt. eigenvalues --    0.00678   0.03108   0.03353   0.03560   0.03781
 Alpha virt. eigenvalues --    0.04101   0.05098   0.05380   0.05837   0.06286
 Alpha virt. eigenvalues --    0.12147   0.13176   0.13229   0.14212   0.14667
 Alpha virt. eigenvalues --    0.14955   0.15370   0.16204   0.16649   0.16829
 Alpha virt. eigenvalues --    0.17697   0.18130   0.18979   0.19356   0.19639
 Alpha virt. eigenvalues --    0.20139   0.20325   0.20875   0.20952   0.21072
 Alpha virt. eigenvalues --    0.21344   0.21806   0.22140   0.22587   0.22743
 Alpha virt. eigenvalues --    0.23102   0.23509   0.23800   0.24300   0.24496
 Alpha virt. eigenvalues --    0.24623   0.24787   0.25875   0.26381   0.26613
 Alpha virt. eigenvalues --    0.26910   0.28234   0.28812   0.28882   0.29276
 Alpha virt. eigenvalues --    0.30400   0.30906   0.31018   0.31534   0.33086
 Alpha virt. eigenvalues --    0.33713   0.33861   0.34911   0.35011   0.35547
 Alpha virt. eigenvalues --    0.36227   0.36453   0.36884   0.37780   0.38012
 Alpha virt. eigenvalues --    0.38187   0.39518   0.40050   0.40403   0.40846
 Alpha virt. eigenvalues --    0.41178   0.42107   0.42974   0.43406   0.45000
 Alpha virt. eigenvalues --    0.46188   0.47335   0.48807   0.50147   0.51544
 Alpha virt. eigenvalues --    0.52968   0.54530   0.54651   0.55951   0.56089
 Alpha virt. eigenvalues --    0.56438   0.57051   0.57429   0.57767   0.57866
 Alpha virt. eigenvalues --    0.58412   0.58958   0.59271   0.59418   0.59686
 Alpha virt. eigenvalues --    0.60273   0.60417   0.60945   0.61387   0.61672
 Alpha virt. eigenvalues --    0.61932   0.62448   0.62693   0.63088   0.63437
 Alpha virt. eigenvalues --    0.64286   0.64518   0.64693   0.64771   0.64926
 Alpha virt. eigenvalues --    0.64999   0.65565   0.65886   0.66105   0.66218
 Alpha virt. eigenvalues --    0.66303   0.66814   0.66918   0.67093   0.67383
 Alpha virt. eigenvalues --    0.67594   0.67786   0.67966   0.68159   0.68437
 Alpha virt. eigenvalues --    0.68660   0.68766   0.69631   0.69876   0.70014
 Alpha virt. eigenvalues --    0.70540   0.70978   0.72032   0.72240   0.72878
 Alpha virt. eigenvalues --    0.73205   0.73586   0.73951   0.74759   0.75699
 Alpha virt. eigenvalues --    0.76121   0.76826   0.77687   0.78872   0.79258
 Alpha virt. eigenvalues --    0.79684   0.80060   0.80174   0.82248   0.83708
 Alpha virt. eigenvalues --    0.83991   0.84182   0.84427   0.85281   0.86021
 Alpha virt. eigenvalues --    0.86498   0.87006   0.87444   0.87715   0.87856
 Alpha virt. eigenvalues --    0.88319   0.88495   0.88670   0.88783   0.89233
 Alpha virt. eigenvalues --    0.89339   0.89479   0.89662   0.89988   0.90576
 Alpha virt. eigenvalues --    0.90794   0.91283   0.91572   0.91988   0.92631
 Alpha virt. eigenvalues --    0.92915   0.93536   0.93964   0.94745   0.95385
 Alpha virt. eigenvalues --    0.95834   0.96020   0.96568   0.97425   0.97603
 Alpha virt. eigenvalues --    0.98230   0.98616   0.99146   0.99517   0.99666
 Alpha virt. eigenvalues --    1.00507   1.01098   1.01431   1.01785   1.02267
 Alpha virt. eigenvalues --    1.03338   1.03927   1.04264   1.04420   1.05171
 Alpha virt. eigenvalues --    1.06363   1.06638   1.07628   1.07938   1.08657
 Alpha virt. eigenvalues --    1.09368   1.10141   1.10510   1.11073   1.11791
 Alpha virt. eigenvalues --    1.12055   1.13260   1.13574   1.15363   1.16872
 Alpha virt. eigenvalues --    1.17484   1.17799   1.18196   1.18525   1.19623
 Alpha virt. eigenvalues --    1.20129   1.20739   1.21661   1.21948   1.22393
 Alpha virt. eigenvalues --    1.22922   1.23282   1.23964   1.25081   1.25489
 Alpha virt. eigenvalues --    1.25985   1.26764   1.27939   1.28411   1.29362
 Alpha virt. eigenvalues --    1.30332   1.30945   1.32308   1.33346   1.34386
 Alpha virt. eigenvalues --    1.34635   1.35332   1.35743   1.36257   1.37075
 Alpha virt. eigenvalues --    1.37882   1.40003   1.40611   1.41204   1.42171
 Alpha virt. eigenvalues --    1.43006   1.43556   1.44292   1.44593   1.44833
 Alpha virt. eigenvalues --    1.45281   1.45803   1.45968   1.46844   1.46982
 Alpha virt. eigenvalues --    1.47616   1.47958   1.48139   1.48913   1.49029
 Alpha virt. eigenvalues --    1.49631   1.49721   1.49891   1.50754   1.51328
 Alpha virt. eigenvalues --    1.52004   1.53216   1.53764   1.54671   1.55568
 Alpha virt. eigenvalues --    1.55968   1.57258   1.57632   1.58172   1.59106
 Alpha virt. eigenvalues --    1.60722   1.61385   1.62654   1.64022   1.65584
 Alpha virt. eigenvalues --    1.67807   1.68384   1.70973   1.71752   1.73119
 Alpha virt. eigenvalues --    1.73633   1.75680   1.76732   1.77176   1.78402
 Alpha virt. eigenvalues --    1.79020   1.80483   1.81002   1.81423   1.82378
 Alpha virt. eigenvalues --    1.83169   1.83444   1.84071   1.84840   1.85191
 Alpha virt. eigenvalues --    1.86296   1.86972   1.87058   1.87540   1.88223
 Alpha virt. eigenvalues --    1.88710   1.88877   1.89670   1.90720   1.91249
 Alpha virt. eigenvalues --    1.91399   1.92358   1.92626   1.93325   1.93503
 Alpha virt. eigenvalues --    1.94071   1.94253   1.94380   1.94919   1.95436
 Alpha virt. eigenvalues --    1.95961   1.96298   1.96381   1.96629   1.97205
 Alpha virt. eigenvalues --    1.97877   1.98688   1.99402   1.99863   2.00121
 Alpha virt. eigenvalues --    2.00234   2.00698   2.01406   2.01689   2.01842
 Alpha virt. eigenvalues --    2.03225   2.03784   2.03922   2.04356   2.04505
 Alpha virt. eigenvalues --    2.04988   2.05538   2.05830   2.06238   2.06899
 Alpha virt. eigenvalues --    2.07575   2.08109   2.08235   2.08825   2.09179
 Alpha virt. eigenvalues --    2.09800   2.10611   2.10796   2.11198   2.12189
 Alpha virt. eigenvalues --    2.12911   2.13613   2.14042   2.15560   2.15881
 Alpha virt. eigenvalues --    2.16983   2.17243   2.17493   2.18282   2.19162
 Alpha virt. eigenvalues --    2.19498   2.20043   2.20562   2.22471   2.23069
 Alpha virt. eigenvalues --    2.24610   2.28101   2.29673   2.30421   2.31313
 Alpha virt. eigenvalues --    2.31879   2.32738   2.33330   2.33635   2.33783
 Alpha virt. eigenvalues --    2.34561   2.35809   2.36051   2.36372   2.37478
 Alpha virt. eigenvalues --    2.37611   2.37768   2.38319   2.38685   2.39262
 Alpha virt. eigenvalues --    2.40394   2.40827   2.41089   2.42169   2.43370
 Alpha virt. eigenvalues --    2.43749   2.44889   2.45188   2.45356   2.45551
 Alpha virt. eigenvalues --    2.45968   2.46215   2.46505   2.46801   2.46951
 Alpha virt. eigenvalues --    2.47767   2.48281   2.48724   2.49017   2.49210
 Alpha virt. eigenvalues --    2.49646   2.50494   2.51063   2.51294   2.52160
 Alpha virt. eigenvalues --    2.52401   2.52889   2.53140   2.54374   2.54730
 Alpha virt. eigenvalues --    2.55813   2.56516   2.57113   2.57179   2.57899
 Alpha virt. eigenvalues --    2.58077   2.58971   2.59440   2.59883   2.60442
 Alpha virt. eigenvalues --    2.60879   2.61348   2.61423   2.62157   2.62296
 Alpha virt. eigenvalues --    2.62396   2.63006   2.63456   2.64561   2.66163
 Alpha virt. eigenvalues --    2.66740   2.66964   2.67459   2.68131   2.69243
 Alpha virt. eigenvalues --    2.69460   2.70024   2.70253   2.71677   2.72008
 Alpha virt. eigenvalues --    2.72708   2.73108   2.73450   2.74208   2.74749
 Alpha virt. eigenvalues --    2.75546   2.75705   2.76981   2.77949   2.78458
 Alpha virt. eigenvalues --    2.79155   2.79917   2.80920   2.81176   2.82357
 Alpha virt. eigenvalues --    2.82614   2.82766   2.83710   2.84179   2.84812
 Alpha virt. eigenvalues --    2.85226   2.85661   2.87039   2.87405   2.88042
 Alpha virt. eigenvalues --    2.88308   2.90154   2.90511   2.90853   2.93540
 Alpha virt. eigenvalues --    2.93917   2.95712   2.96781   2.98113   3.00876
 Alpha virt. eigenvalues --    3.03050   3.03311   3.04327   3.06370   3.07274
 Alpha virt. eigenvalues --    3.08042   3.08725   3.10612   3.11628   3.12810
 Alpha virt. eigenvalues --    3.13333   3.13618   3.14440   3.18061   3.19351
 Alpha virt. eigenvalues --    3.20026   3.21844   3.24334   3.27059   3.27838
 Alpha virt. eigenvalues --    3.28623   3.31413   3.31600   3.32070   3.32657
 Alpha virt. eigenvalues --    3.32875   3.33218   3.34846   3.37309   3.37850
 Alpha virt. eigenvalues --    3.40227   3.42515   3.43505   3.43894   3.44929
 Alpha virt. eigenvalues --    3.45687   3.46233   3.50474   3.50637   3.51604
 Alpha virt. eigenvalues --    3.52147   3.53085   3.56111   3.57945   3.58303
 Alpha virt. eigenvalues --    3.58555   3.59884   3.60607   3.66241   3.73674
 Alpha virt. eigenvalues --    3.90106   3.96067   3.96856   4.01571   4.11759
 Alpha virt. eigenvalues --    4.14562   4.16325   4.18805   4.19701   4.20924
 Alpha virt. eigenvalues --    4.21192   4.22022   4.22734   4.24036   4.24659
 Alpha virt. eigenvalues --    4.27242   4.28625   4.30210   4.30882   4.32309
 Alpha virt. eigenvalues --    4.33706   4.42966   4.44833   4.49207   4.50207
 Alpha virt. eigenvalues --    4.50984   4.51973   4.53403   4.54136   4.55443
 Alpha virt. eigenvalues --    4.56226   4.60522   4.65795   4.66619   4.69905
 Alpha virt. eigenvalues --    4.73792   4.79697   4.86642   4.90388   4.90785
 Alpha virt. eigenvalues --    4.92887   4.94670
          Condensed to atoms (all electrons):
 Mulliken charges:
               1
     1  C   -0.232213
     2  C   -0.053278
     3  C   -0.103456
     4  N   -0.555181
     5  C    0.812782
     6  O   -0.521247
     7  N   -0.559476
     8  C    0.830133
     9  O   -0.525088
    10  N   -0.576203
    11  C    0.824066
    12  O   -0.529071
    13  C   -0.067144
    14  C    0.102608
    15  C   -0.091128
    16  C   -0.103574
    17  C   -0.092480
    18  C   -0.097448
    19  C   -0.127718
    20  C    0.102938
    21  C   -0.122802
    22  C   -0.100151
    23  C   -0.092851
    24  C   -0.095698
    25  C   -0.117734
    26  C   -0.107190
    27  C   -0.068041
    28  C   -0.116467
    29  C    0.038191
    30  O   -0.531068
    31  C    0.367559
    32  C   -0.138852
    33  C   -0.113234
    34  C    0.020257
    35  C   -0.105965
    36  C   -0.133908
    37  C    0.545917
    38  O   -0.496328
    39  O   -0.502954
    40  H    0.110975
    41  H    0.121145
    42  H    0.113311
    43  H    0.153160
    44  H    0.155905
    45  H    0.166538
    46  H    0.106578
    47  H    0.099199
    48  H    0.096946
    49  H    0.098644
    50  H    0.096594
    51  H    0.100612
    52  H    0.098992
    53  H    0.098055
    54  H    0.101606
    55  H    0.102055
    56  H    0.155141
    57  H    0.169220
    58  H    0.115035
    59  H    0.106816
    60  H    0.115822
    61  H    0.137673
    62  H    0.108366
    63  H    0.127122
    64  H    0.127631
    65  H    0.112726
    66  H    0.337630
 Sum of Mulliken charges =   0.00000
 Mulliken charges with hydrogens summed into heavy atoms:
               1
     1  C   -0.000093
     2  C    0.060034
     3  C    0.205609
     4  N   -0.555181
     5  C    0.812782
     6  O   -0.521247
     7  N   -0.559476
     8  C    0.830133
     9  O   -0.525088
    10  N   -0.576203
    11  C    0.824066
    12  O   -0.529071
    13  C    0.099395
    14  C    0.102608
    15  C    0.015450
    16  C   -0.004375
    17  C    0.004466
    18  C    0.001196
    19  C   -0.031124
    20  C    0.102938
    21  C   -0.022189
    22  C   -0.001159
    23  C    0.005204
    24  C    0.005908
    25  C   -0.015679
    26  C    0.217172
    27  C    0.046994
    28  C   -0.009651
    29  C    0.291686
    30  O   -0.531068
    31  C    0.367559
    32  C   -0.030486
    33  C    0.013889
    34  C    0.020257
    35  C    0.021665
    36  C   -0.021182
    37  C    0.545917
    38  O   -0.496328
    39  O   -0.165325
 Electronic spatial extent (au):  <R**2>=          27187.8723
 Charge=              0.0000 electrons
 Dipole moment (field-independent basis, Debye):
    X=             -0.8181    Y=             -0.1328    Z=              3.1033  Tot=              3.2120
 Quadrupole moment (field-independent basis, Debye-Ang):
   XX=           -221.1948   YY=           -225.4107   ZZ=           -205.9562
   XY=             -5.9280   XZ=             18.0220   YZ=             -3.8744
 Traceless Quadrupole moment (field-independent basis, Debye-Ang):
   XX=             -3.6743   YY=             -7.8901   ZZ=             11.5644
   XY=             -5.9280   XZ=             18.0220   YZ=             -3.8744
 Octapole moment (field-independent basis, Debye-Ang**2):
  XXX=            -74.1394  YYY=             17.5985  ZZZ=            138.5989  XYY=            -15.9342
  XXY=            -50.3173  XXZ=            194.9248  XZZ=            -80.0037  YZZ=             20.3805
  YYZ=             15.6753  XYZ=             13.0229
 Hexadecapole moment (field-independent basis, Debye-Ang**3):
 XXXX=         -25663.8546 YYYY=          -3723.6826 ZZZZ=          -4093.0730 XXXY=            385.3667
 XXXZ=            833.5101 YYYX=            709.5125 YYYZ=           -201.2173 ZZZX=            490.7824
 ZZZY=           -133.9278 XXYY=          -5131.4416 XXZZ=          -5548.3185 YYZZ=          -1333.8151
 XXYZ=           -165.2303 YYXZ=            115.8616 ZZXY=            339.7569
 N-N= 4.184046377593D+03 E-N=-1.249822988512D+04  KE= 1.757925718079D+03
 No NMR shielding tensors so no spin-rotation constants.
 Leave Link  601 at Mon Mar  4 23:14:41 2024, MaxMem=  5368709120 cpu:         5.6
 (Enter /home/k0335/k033513/app/g09/l9999.exe)
 1\1\GINC-C18U06N4\SP\RCAM-B3LYP\6-31G(d,p)\C30H27N3O6\K033513\04-Mar-2
 024\0\\#p CAM-B3LYP/6-31G(d,p) SCRF=(PCM,Solvent=Generic,Read) NoSymm 
 out=wfn\\Title A444117590_0\\0,1\C,0,1.568614,-3.122553,-2.982116\C,0,
 0.354523,-3.17255,-2.417313\C,0,0.102511,-3.098393,-0.935501\N,0,-0.43
 0878,-1.782711,-0.611236\C,0,0.458179,-0.802057,-0.226979\O,0,1.66829,
 -1.020461,-0.141354\N,0,-0.08844,0.427699,0.066721\C,0,-1.4414,0.69654
 3,0.020417\O,0,-1.878809,1.779812,0.414114\N,0,-2.257224,-0.314775,-0.
 444217\C,0,-1.789481,-1.584801,-0.719159\O,0,-2.540354,-2.504427,-1.05
 4783\C,0,-3.713474,-0.096016,-0.561921\C,0,-4.084189,1.143778,-1.38415
 7\C,0,-4.662294,2.289198,-0.814808\C,0,-4.983922,3.394643,-1.605679\C,
 0,-4.728978,3.375453,-2.974689\C,0,-4.148936,2.251877,-3.556634\C,0,-3
 .82752,1.145089,-2.76892\C,0,-4.505582,-0.311569,0.736923\C,0,-4.01596
 6,0.015913,2.011149\C,0,-4.791895,-0.193487,3.155292\C,0,-6.071596,-0.
 729517,3.047816\C,0,-6.580914,-1.054279,1.795094\C,0,-5.807645,-0.8449
 9,0.651422\C,0,0.811773,1.490741,0.502899\C,0,0.890368,1.48184,2.00680
 3\C,0,1.928464,1.181331,2.807353\C,0,3.344303,0.782343,2.483164\O,0,3.
 74816,1.258695,1.205627\C,0,4.899951,0.715328,0.705241\C,0,5.953514,0.
 213213,1.472104\C,0,7.092551,-0.306601,0.845514\C,0,7.184875,-0.320976
 ,-0.551608\C,0,6.133798,0.195152,-1.317206\C,0,5.001078,0.71669,-0.687
 739\C,0,8.368411,-0.867131,-1.257933\O,0,8.508373,-0.940014,-2.465294\
 O,0,9.326967,-1.297604,-0.416523\H,0,1.686077,-3.191733,-4.05951\H,0,2
 .469323,-2.999206,-2.385346\H,0,-0.521138,-3.295612,-3.051961\H,0,1.02
 2327,-3.290462,-0.370686\H,0,-0.609735,-3.881681,-0.651332\H,0,-4.0842
 93,-0.908966,-1.203092\H,0,-4.85538,2.341237,0.2546\H,0,-5.427591,4.27
 5805,-1.1488\H,0,-4.978897,4.238591,-3.584958\H,0,-3.946133,2.238116,-
 4.62418\H,0,-3.376577,0.27545,-3.243775\H,0,-3.031512,0.451379,2.14663
 \H,0,-4.39505,0.069022,4.132705\H,0,-6.671804,-0.889677,3.938955\H,0,-
 7.581356,-1.469103,1.70563\H,0,-6.232075,-1.101944,-0.318077\H,0,0.425
 42,2.463894,0.176534\H,0,1.778265,1.367813,0.015584\H,0,-0.041862,1.76
 6214,2.497623\H,0,1.736684,1.219362,3.879941\H,0,3.992977,1.233666,3.2
 43899\H,0,3.416858,-0.310814,2.547569\H,0,5.92429,0.223957,2.556945\H,
 0,7.902966,-0.69476,1.458015\H,0,6.18879,0.192981,-2.404004\H,0,4.1837
 48,1.110266,-1.287947\H,0,10.030472,-1.624221,-1.014825\\Version=ES64L
 -G09RevD.01\HF=-1774.2544042\RMSD=4.647e-09\Dipole=-0.3218516,-0.05226
 11,1.2209224\Quadrupole=-2.7317394,-5.8660918,8.5978312,-4.4073125,13.
 3988929,-2.8805456\PG=C01 [X(C30H27N3O6)]\\@

 Writing a WFN file to "A444117590/A444117590_0.wfn"


 IF GOD HAD MEANT MAN TO SEE THE SUN RISE, HE
 WOULD HAVE SCHEDULED IT FOR A LATER HOUR.
 Job cpu time:       0 days  0 hours 29 minutes  3.6 seconds.
 File lengths (MBytes):  RWF=    662 Int=      0 D2E=      0 Chk=     21 Scr=      1
 Normal termination of Gaussian 09 at Mon Mar  4 23:14:42 2024.
