 Entering Gaussian System, Link 0=g09
 Initial command:
 /home/k0335/k033513/app/g09/l1.exe "/home/k0335/k033513/app/g09/scratch/Gau-2965363.inp" -scrdir="/home/k0335/k033513/app/g09/scratch/"
 Default is to use a total of  36 processors:
                               36 via shared-memory
                                1 via Linda
 Entering Link 1 = /home/k0335/k033513/app/g09/l1.exe PID=   2965364.
  
 Copyright (c) 1988,1990,1992,1993,1995,1998,2003,2009,2013,
            Gaussian, Inc.  All Rights Reserved.
  
 This is part of the Gaussian(R) 09 program.  It is based on
 the Gaussian(R) 03 system (copyright 2003, Gaussian, Inc.),
 the Gaussian(R) 98 system (copyright 1998, Gaussian, Inc.),
 the Gaussian(R) 94 system (copyright 1995, Gaussian, Inc.),
 the Gaussian 92(TM) system (copyright 1992, Gaussian, Inc.),
 the Gaussian 90(TM) system (copyright 1990, Gaussian, Inc.),
 the Gaussian 88(TM) system (copyright 1988, Gaussian, Inc.),
 the Gaussian 86(TM) system (copyright 1986, Carnegie Mellon
 University), and the Gaussian 82(TM) system (copyright 1983,
 Carnegie Mellon University). Gaussian is a federally registered
 trademark of Gaussian, Inc.
  
 This software contains proprietary and confidential information,
 including trade secrets, belonging to Gaussian, Inc.
  
 This software is provided under written license and may be
 used, copied, transmitted, or stored only in accord with that
 written license.
  
 The following legend is applicable only to US Government
 contracts under FAR:
  
                    RESTRICTED RIGHTS LEGEND
  
 Use, reproduction and disclosure by the US Government is
 subject to restrictions as set forth in subparagraphs (a)
 and (c) of the Commercial Computer Software - Restricted
 Rights clause in FAR 52.227-19.
  
 Gaussian, Inc.
 340 Quinnipiac St., Bldg. 40, Wallingford CT 06492
  
  
 ---------------------------------------------------------------
 Warning -- This program may not be used in any manner that
 competes with the business of Gaussian, Inc. or will provide
 assistance to any competitor of Gaussian, Inc.  The licensee
 of this program is prohibited from giving any competitor of
 Gaussian, Inc. access to this program.  By using this program,
 the user acknowledges that Gaussian, Inc. is engaged in the
 business of creating and licensing software in the field of
 computational chemistry and represents and warrants to the
 licensee that it is not a competitor of Gaussian, Inc. and that
 it will not use this program in any manner prohibited above.
 ---------------------------------------------------------------
  

 Cite this work as:
 Gaussian 09, Revision D.01,
 M. J. Frisch, G. W. Trucks, H. B. Schlegel, G. E. Scuseria, 
 M. A. Robb, J. R. Cheeseman, G. Scalmani, V. Barone, B. Mennucci, 
 G. A. Petersson, H. Nakatsuji, M. Caricato, X. Li, H. P. Hratchian, 
 A. F. Izmaylov, J. Bloino, G. Zheng, J. L. Sonnenberg, M. Hada, 
 M. Ehara, K. Toyota, R. Fukuda, J. Hasegawa, M. Ishida, T. Nakajima, 
 Y. Honda, O. Kitao, H. Nakai, T. Vreven, J. A. Montgomery, Jr., 
 J. E. Peralta, F. Ogliaro, M. Bearpark, J. J. Heyd, E. Brothers, 
 K. N. Kudin, V. N. Staroverov, T. Keith, R. Kobayashi, J. Normand, 
 K. Raghavachari, A. Rendell, J. C. Burant, S. S. Iyengar, J. Tomasi, 
 M. Cossi, N. Rega, J. M. Millam, M. Klene, J. E. Knox, J. B. Cross, 
 V. Bakken, C. Adamo, J. Jaramillo, R. Gomperts, R. E. Stratmann, 
 O. Yazyev, A. J. Austin, R. Cammi, C. Pomelli, J. W. Ochterski, 
 R. L. Martin, K. Morokuma, V. G. Zakrzewski, G. A. Voth, 
 P. Salvador, J. J. Dannenberg, S. Dapprich, A. D. Daniels, 
 O. Farkas, J. B. Foresman, J. V. Ortiz, J. Cioslowski, 
 and D. J. Fox, Gaussian, Inc., Wallingford CT, 2013.
 
 ******************************************
 Gaussian 09:  ES64L-G09RevD.01 24-Apr-2013
                 3-Feb-2025 
 ******************************************
 %nprocshared=24
 Will use up to   24 processors via shared memory.
 %mem=40GB
 %rwf=cytop/AEP2/AEP2_neu.rwf
 %nosave
 %chk=cytop/AEP2/AEP2_neu.chk
 ----------------------------------------------------------------------
 #p CAM-B3LYP/6-31G(d,p) SCRF=(PCM,Solvent=Generic,Read) NoSymm out=wfn
 ----------------------------------------------------------------------
 1/38=1,40=2/1;
 2/12=2,15=1,17=6,18=5,40=1/2;
 3/5=1,6=6,7=101,11=2,16=1,25=1,30=1,70=2203,72=-2,74=-40/1,2,3;
 4//1;
 5/5=2,38=5/2;
 6/7=2,8=2,9=2,10=2,28=1/1;
 99/5=1,6=100,9=1/99;
 Leave Link    1 at Mon Feb  3 21:55:41 2025, MaxMem=  5368709120 cpu:         1.1
 (Enter /home/k0335/k033513/app/g09/l101.exe)
 --------------
 Title AEP2_neu
 --------------
 Symbolic Z-matrix:
 Charge =  0 Multiplicity = 1
 F                     6.44188  -1.42962  -1.10464 
 C                     5.50661  -0.58106  -0.63742 
 F                     6.06641   0.64909  -0.57908 
 C                     4.92721  -0.99907   0.69871 
 F                     4.72243  -2.33186   0.75317 
 F                     5.69644  -0.67091   1.75174 
 C                     3.63315  -0.25359   0.65333 
 F                     3.92323   1.08702   0.79263 
 C                     2.65076  -0.64478   1.71337 
 F                     2.39068  -1.97337   1.6206 
 C                     3.16483  -0.28162   3.10234 
 O                     2.83383   0.96396   3.50541 
 O                     3.84367  -0.99204   3.82843 
 F                     1.47119  -0.01435   1.43506 
 C                     3.211    -0.47181  -0.80064 
 F                     2.54706   0.64635  -1.22819 
 C                     2.36993  -1.70416  -1.20938 
 F                     2.48023  -1.8424   -2.57446 
 C                     0.87229  -1.55773  -0.86778 
 N                     0.17607  -0.64023  -1.63765 
 C                    -1.23527  -0.36537  -1.41992 
 C                    -1.46582   0.61613  -0.25256 
 N                    -2.85393   1.00886   0.03772 
 C                    -3.49579   1.72179  -1.07061 
 C                    -4.86132   2.26617  -0.6462 
 C                    -5.75916   1.15544  -0.11133 
 C                    -5.04195   0.3657    0.97849 
 C                    -3.66973  -0.11832   0.50511 
 O                     0.32082  -2.20257   0.02164 
 F                     2.92882  -2.83443  -0.70133 
 O                     4.44169  -0.48884  -1.57792 
 H                     3.21198   1.05458   4.40702 
 H                     0.66774  -0.0992   -2.34329 
 H                    -1.7441   -1.31671  -1.23357 
 H                    -1.61454   0.04815  -2.35924 
 H                    -0.88272   1.52736  -0.44278 
 H                    -1.02712   0.19705   0.66212 
 H                    -2.87221   2.5678   -1.38333 
 H                    -3.62459   1.06869  -1.94239 
 H                    -5.3463    2.7549   -1.49876 
 H                    -4.72729   3.03241   0.12799 
 H                    -6.03384   0.48054  -0.93127 
 H                    -6.68919   1.58013   0.28206 
 H                    -5.65457  -0.49261   1.27674 
 H                    -4.92184   0.99732   1.86794 
 H                    -3.80391  -0.86591  -0.28633 
 H                    -3.17472  -0.61689   1.34712 
 
 NAtoms=     47 NQM=       47 NQMF=       0 NMMI=      0 NMMIF=      0
                NMic=       0 NMicF=      0.
                    Isotopes and Nuclear Properties:
 (Nuclear quadrupole moments (NQMom) in fm**2, nuclear magnetic moments (NMagM)
  in nuclear magnetons)

  Atom         1           2           3           4           5           6           7           8           9          10
 IAtWgt=          19          12          19          12          19          19          12          19          12          19
 AtmWgt=  18.9984033  12.0000000  18.9984033  12.0000000  18.9984033  18.9984033  12.0000000  18.9984033  12.0000000  18.9984033
 NucSpn=           1           0           1           0           1           1           0           1           0           1
 AtZEff=   0.0000000   0.0000000   0.0000000   0.0000000   0.0000000   0.0000000   0.0000000   0.0000000   0.0000000   0.0000000
 NQMom=    0.0000000   0.0000000   0.0000000   0.0000000   0.0000000   0.0000000   0.0000000   0.0000000   0.0000000   0.0000000
 NMagM=    2.6288670   0.0000000   2.6288670   0.0000000   2.6288670   2.6288670   0.0000000   2.6288670   0.0000000   2.6288670
 AtZNuc=   9.0000000   6.0000000   9.0000000   6.0000000   9.0000000   9.0000000   6.0000000   9.0000000   6.0000000   9.0000000

  Atom        11          12          13          14          15          16          17          18          19          20
 IAtWgt=          12          16          16          19          12          19          12          19          12          14
 AtmWgt=  12.0000000  15.9949146  15.9949146  18.9984033  12.0000000  18.9984033  12.0000000  18.9984033  12.0000000  14.0030740
 NucSpn=           0           0           0           1           0           1           0           1           0           2
 AtZEff=   0.0000000   0.0000000   0.0000000   0.0000000   0.0000000   0.0000000   0.0000000   0.0000000   0.0000000   0.0000000
 NQMom=    0.0000000   0.0000000   0.0000000   0.0000000   0.0000000   0.0000000   0.0000000   0.0000000   0.0000000   2.0440000
 NMagM=    0.0000000   0.0000000   0.0000000   2.6288670   0.0000000   2.6288670   0.0000000   2.6288670   0.0000000   0.4037610
 AtZNuc=   6.0000000   8.0000000   8.0000000   9.0000000   6.0000000   9.0000000   6.0000000   9.0000000   6.0000000   7.0000000

  Atom        21          22          23          24          25          26          27          28          29          30
 IAtWgt=          12          12          14          12          12          12          12          12          16          19
 AtmWgt=  12.0000000  12.0000000  14.0030740  12.0000000  12.0000000  12.0000000  12.0000000  12.0000000  15.9949146  18.9984033
 NucSpn=           0           0           2           0           0           0           0           0           0           1
 AtZEff=   0.0000000   0.0000000   0.0000000   0.0000000   0.0000000   0.0000000   0.0000000   0.0000000   0.0000000   0.0000000
 NQMom=    0.0000000   0.0000000   2.0440000   0.0000000   0.0000000   0.0000000   0.0000000   0.0000000   0.0000000   0.0000000
 NMagM=    0.0000000   0.0000000   0.4037610   0.0000000   0.0000000   0.0000000   0.0000000   0.0000000   0.0000000   2.6288670
 AtZNuc=   6.0000000   6.0000000   7.0000000   6.0000000   6.0000000   6.0000000   6.0000000   6.0000000   8.0000000   9.0000000

  Atom        31          32          33          34          35          36          37          38          39          40
 IAtWgt=          16           1           1           1           1           1           1           1           1           1
 AtmWgt=  15.9949146   1.0078250   1.0078250   1.0078250   1.0078250   1.0078250   1.0078250   1.0078250   1.0078250   1.0078250
 NucSpn=           0           1           1           1           1           1           1           1           1           1
 AtZEff=   0.0000000   0.0000000   0.0000000   0.0000000   0.0000000   0.0000000   0.0000000   0.0000000   0.0000000   0.0000000
 NQMom=    0.0000000   0.0000000   0.0000000   0.0000000   0.0000000   0.0000000   0.0000000   0.0000000   0.0000000   0.0000000
 NMagM=    0.0000000   2.7928460   2.7928460   2.7928460   2.7928460   2.7928460   2.7928460   2.7928460   2.7928460   2.7928460
 AtZNuc=   8.0000000   1.0000000   1.0000000   1.0000000   1.0000000   1.0000000   1.0000000   1.0000000   1.0000000   1.0000000

  Atom        41          42          43          44          45          46          47
 IAtWgt=           1           1           1           1           1           1           1
 AtmWgt=   1.0078250   1.0078250   1.0078250   1.0078250   1.0078250   1.0078250   1.0078250
 NucSpn=           1           1           1           1           1           1           1
 AtZEff=   0.0000000   0.0000000   0.0000000   0.0000000   0.0000000   0.0000000   0.0000000
 NQMom=    0.0000000   0.0000000   0.0000000   0.0000000   0.0000000   0.0000000   0.0000000
 NMagM=    2.7928460   2.7928460   2.7928460   2.7928460   2.7928460   2.7928460   2.7928460
 AtZNuc=   1.0000000   1.0000000   1.0000000   1.0000000   1.0000000   1.0000000   1.0000000
 Leave Link  101 at Mon Feb  3 21:55:42 2025, MaxMem=  5368709120 cpu:         1.0
 (Enter /home/k0335/k033513/app/g09/l202.exe)
                          Input orientation:                          
 ---------------------------------------------------------------------
 Center     Atomic      Atomic             Coordinates (Angstroms)
 Number     Number       Type             X           Y           Z
 ---------------------------------------------------------------------
      1          9           0        6.441882   -1.429621   -1.104635
      2          6           0        5.506610   -0.581064   -0.637422
      3          9           0        6.066408    0.649090   -0.579076
      4          6           0        4.927206   -0.999071    0.698713
      5          9           0        4.722432   -2.331858    0.753170
      6          9           0        5.696435   -0.670906    1.751739
      7          6           0        3.633151   -0.253588    0.653330
      8          9           0        3.923228    1.087024    0.792625
      9          6           0        2.650759   -0.644784    1.713368
     10          9           0        2.390677   -1.973365    1.620604
     11          6           0        3.164830   -0.281624    3.102336
     12          8           0        2.833830    0.963964    3.505407
     13          8           0        3.843674   -0.992036    3.828432
     14          9           0        1.471185   -0.014349    1.435061
     15          6           0        3.210999   -0.471813   -0.800643
     16          9           0        2.547056    0.646351   -1.228192
     17          6           0        2.369927   -1.704156   -1.209378
     18          9           0        2.480231   -1.842403   -2.574458
     19          6           0        0.872286   -1.557734   -0.867775
     20          7           0        0.176066   -0.640234   -1.637654
     21          6           0       -1.235268   -0.365368   -1.419924
     22          6           0       -1.465819    0.616127   -0.252564
     23          7           0       -2.853930    1.008855    0.037721
     24          6           0       -3.495790    1.721788   -1.070609
     25          6           0       -4.861317    2.266167   -0.646200
     26          6           0       -5.759158    1.155437   -0.111330
     27          6           0       -5.041949    0.365696    0.978492
     28          6           0       -3.669727   -0.118324    0.505110
     29          8           0        0.320815   -2.202572    0.021643
     30          9           0        2.928816   -2.834426   -0.701331
     31          8           0        4.441693   -0.488837   -1.577915
     32          1           0        3.211984    1.054579    4.407025
     33          1           0        0.667736   -0.099199   -2.343294
     34          1           0       -1.744101   -1.316711   -1.233574
     35          1           0       -1.614544    0.048152   -2.359244
     36          1           0       -0.882720    1.527362   -0.442784
     37          1           0       -1.027118    0.197049    0.662119
     38          1           0       -2.872206    2.567802   -1.383330
     39          1           0       -3.624593    1.068694   -1.942392
     40          1           0       -5.346302    2.754904   -1.498763
     41          1           0       -4.727287    3.032415    0.127990
     42          1           0       -6.033843    0.480538   -0.931271
     43          1           0       -6.689192    1.580126    0.282055
     44          1           0       -5.654574   -0.492605    1.276737
     45          1           0       -4.921844    0.997319    1.867941
     46          1           0       -3.803914   -0.865906   -0.286328
     47          1           0       -3.174719   -0.616885    1.347115
 ---------------------------------------------------------------------
                    Distance matrix (angstroms):
                    1          2          3          4          5
     1  F    0.000000
     2  C    1.346503   0.000000
     3  F    2.176748   1.352796   0.000000
     4  C    2.394093   1.515155   2.376333   0.000000
     5  F    2.687374   2.369380   3.530893   1.349526   0.000000
     6  F    3.047985   2.398373   2.704065   1.344719   2.169005
     7  C    3.516030   2.298506   2.873046   1.494116   2.348554
     8  F    4.034441   2.708256   2.581970   2.317020   3.511273
     9  C    4.788499   3.699481   4.312316   2.517391   2.839019
    10  F    4.912723   4.092215   5.022635   2.869340   2.513571
    11  C    5.454867   4.422600   4.778931   3.065633   3.485422
    12  O    6.324538   5.166614   5.218401   4.014133   4.690849
    13  O    5.592613   4.783106   5.201920   3.311983   3.467647
    14  F    5.758548   4.571762   5.060926   3.668238   4.050485
    15  C    3.383550   2.303998   3.075529   2.339110   2.856314
    16  F    4.415268   3.257993   3.578715   3.476419   4.186620
    17  C    4.082543   3.380422   4.427078   3.267665   3.127281
    18  F    4.245639   3.808156   4.801016   4.172834   4.042294
    19  C    5.576102   4.741720   5.650869   4.382735   4.248571
    20  N    6.337799   5.423898   6.122015   5.306666   5.408056
    21  C    7.756976   6.790564   7.419611   6.547235   6.639549
    22  C    8.212359   7.084924   7.539373   6.662174   6.927955
    23  N    9.677978   8.537112   8.948871   8.063173   8.311046
    24  C   10.425443   9.302364   9.634725   9.026651   9.343307
    25  C   11.900896  10.751777  11.046928  10.406044  10.721395
    26  C   12.511377  11.410948  11.845640  10.931443  11.080267
    27  C   11.808512  10.713526  11.220603  10.066028  10.132655
    28  C   10.322568   9.258762   9.826327   8.644099   8.682718
    29  O    6.271636   5.473219   6.442412   4.808916   4.463864
    30  F    3.804966   3.424434   4.689810   3.053230   2.363304
    31  O    2.260492   1.423756   2.220868   2.383086   2.984878
    32  H    6.854333   5.778156   5.759632   4.572859   5.205772
    33  H    6.053516   5.153338   5.728705   5.310994   5.568969
    34  H    8.187777   7.312276   8.080643   6.952767   6.840594
    35  H    8.286366   7.353327   7.907411   7.296730   7.450425
    36  H    7.926638   6.731039   7.005735   6.437478   6.909531
    37  H    7.845600   6.707001   7.215471   6.073386   6.281798
    38  H   10.139492   8.981998   9.177532   8.825436   9.287078
    39  H   10.405640   9.370353   9.795417   9.186096   9.407584
    40  H   12.515066  11.386672  11.641745  11.156442  11.503293
    41  H   12.090470  10.880061  11.076282  10.477969  10.884092
    42  H   12.622301  11.592903  12.106549  11.179923  11.244748
    43  H   13.542769  12.419894  12.818491  11.906576  12.072727
    44  H   12.364189  11.324480  11.921784  10.609651  10.551740
    45  H   11.994187  10.840701  11.262808  10.117137  10.263440
    46  H   10.293869   9.321494   9.990204   8.787519   8.713676
    47  H    9.957441   8.905344   9.524250   8.136810   8.103018
                    6          7          8          9         10
     6  F    0.000000
     7  C    2.374405   0.000000
     8  F    2.674786   1.378691   0.000000
     9  C    3.046030   1.497267   2.337970   0.000000
    10  F    3.555507   2.331736   3.521398   1.356973   0.000000
    11  C    2.895631   2.493540   2.789826   1.524922   2.378409
    12  O    3.733987   3.202451   2.925939   2.415158   3.518063
    13  O    2.801518   3.266634   3.680346   2.452983   2.819346
    14  F    4.287667   2.311371   2.763740   1.366125   2.172012
    15  C    3.568149   1.529664   2.340031   2.581480   2.964797
    16  F    4.531417   2.351514   2.484299   3.214119   3.873371
    17  C    4.571813   2.677604   3.769807   3.121471   2.842833
    18  F    5.516553   3.777853   4.690526   4.455202   4.198061
    19  C    5.560641   3.411295   4.365767   3.264773   2.944536
    20  N    6.477916   4.165278   4.788622   4.165750   4.159085
    21  C    7.628978   5.292672   5.797836   4.999680   4.997794
    22  C    7.547951   5.251337   5.509627   4.732969   5.008671
    23  N    8.880777   6.637391   6.819521   5.986979   6.237392
    24  C    9.908967   7.595780   7.675702   7.150612   7.453005
    25  C   11.217960   8.955106   8.979356   8.394789   8.700773
    26  C   11.748922   9.528144   9.724732   8.791873   8.899933
    27  C   10.815976   8.703252   8.996069   7.793515   7.818404
    28  C    9.464905   7.305634   7.693406   6.456438   6.435371
    29  O    5.851198   3.894758   4.938951   3.273725   2.625555
    30  F    4.284634   2.998653   4.312601   3.271486   2.534246
    31  O    3.562881   2.384856   2.893372   3.750241   4.079340
    32  H    4.024964   3.997363   3.683858   3.233975   4.196085
    33  H    6.510296   4.218682   4.673258   4.548247   4.710999
    34  H    8.043055   5.797023   6.480898   5.333924   5.066943
    35  H    8.418292   6.058461   6.456040   5.937941   5.997292
    36  H    7.275548   4.976579   4.981693   4.674685   5.218025
    37  H    6.866351   4.682014   5.031403   3.916706   4.160615
    38  H    9.681916   7.377526   7.287346   7.100239   7.572566
    39  H   10.176167   7.820553   8.028092   7.461946   7.624470
    40  H   12.010161   9.711493   9.693115   9.264375   9.588943
    41  H   11.180569   8.998373   8.891439   8.394688   8.828994
    42  H   12.088167   9.823476  10.123384   9.147829   9.138175
    43  H   12.674024  10.490525  10.636131   9.707397   9.841902
    44  H   11.362342   9.311692   9.719253   8.318195   8.187610
    45  H   10.749155   8.730864   8.910648   7.750143   7.896778
    46  H    9.718455   7.521159   8.042810   6.760953   6.575394
    47  H    8.880541   6.852767   7.320630   5.837047   5.734847
                   11         12         13         14         15
    11  C    0.000000
    12  O    1.350377   0.000000
    13  O    1.221773   2.224874   0.000000
    14  F    2.391584   2.664626   3.508960   0.000000
    15  C    3.907883   4.554753   4.700983   2.869599   0.000000
    16  F    4.471717   4.752902   5.471287   2.947361   1.368908
    17  C    4.609376   5.437211   5.297035   3.264390   1.546976
    18  F    5.927115   6.705631   6.601447   4.520641   2.357744
    19  C    4.758781   5.415841   5.586011   2.836154   2.579401
    20  N    5.615053   6.007349   6.591905   3.392734   3.152740
    21  C    6.310207   6.525609   7.330321   3.949562   4.490449
    22  C    5.788283   5.721042   6.887048   3.445515   4.832870
    23  N    6.876240   6.661642   7.951789   4.658983   6.299095
    24  C    8.111164   7.847185   9.232181   5.827812   7.061571
    25  C    9.217472   8.840071  10.315769   7.045068   8.525413
    26  C    9.593245   9.325068  10.599422   7.485826   9.142582
    27  C    8.501821   8.292835   9.429734   6.540168   8.483979
    28  C    7.313236   7.243575   8.261903   5.225380   7.012441
    29  O    4.611847   5.336554   5.326122   2.847705   3.467686
    30  F    4.586980   5.668636   4.974949   3.826447   2.381476
    31  O    4.855725   5.525940   5.462547   4.257591   1.455695
    32  H    1.868121   0.981899   2.218656   3.606322   5.426756
    33  H    5.993634   6.326894   6.998138   3.863767   2.997799
    34  H    6.630922   6.972580   7.546691   4.376737   5.045225
    35  H    7.264986   7.417606   8.316337   4.891051   5.097594
    36  H    5.676528   5.451456   6.850507   3.382905   4.569825
    37  H    4.874035   4.855859   5.929931   2.623670   4.533066
    38  H    8.042775   7.683156   9.216179   5.785834   6.825259
    39  H    8.565565   8.449894   9.660436   6.208633   7.099442
    40  H   10.140512   9.755191  11.263846   7.921756   9.172049
    41  H    9.061738   8.535568  10.166162   7.029386   8.726876
    42  H   10.073056   9.927408  11.062938   7.884788   9.294683
    43  H   10.417382  10.072616  11.407632   8.394256  10.168406
    44  H    9.008841   8.896155   9.847705   7.143545   9.105730
    45  H    8.279718   7.926720   9.199748   6.487039   8.684632
    46  H    7.770960   7.860364   8.685204   5.613822   7.044773
    47  H    6.586584   6.577231   7.453557   4.685638   6.738791
                   16         17         18         19         20
    16  F    0.000000
    17  C    2.357247   0.000000
    18  F    2.830335   1.376489   0.000000
    19  C    2.791549   1.543069   2.362052   0.000000
    20  N    2.728471   2.475556   2.762605   1.385367   0.000000
    21  C    3.919989   3.851508   4.161672   2.483624   1.454243
    22  C    4.129882   4.583902   5.196814   3.251291   2.488514
    23  N    5.559190   6.017006   6.588355   4.614324   3.835003
    24  C    6.139820   6.794335   7.118837   5.465939   4.402637
    25  C    7.605689   8.268708   8.631156   6.895326   5.899608
    26  C    8.396412   8.687060   9.107227   7.204829   6.385999
    27  C    7.908301   8.000436   8.607110   6.487408   5.923158
    28  C    6.499035   6.475473   7.090710   4.958487   4.433278
    29  O    3.825519   2.441862   3.395959   1.229228   2.283663
    30  F    3.541064   1.359404   2.166551   2.426306   3.642638
    31  O    2.236204   2.430028   2.583132   3.793087   4.268731
    32  H    5.688976   6.313768   7.594016   6.334184   6.973330
    33  H    2.308926   2.599828   2.525339   2.084783   1.016064
    34  H    4.718863   4.132303   4.463105   2.652806   2.075558
    35  H    4.353853   4.502087   4.515274   3.314766   2.049598
    36  H    3.627177   4.648665   5.216205   3.574700   2.692065
    37  H    4.068153   4.319375   5.190019   3.004592   2.727206
    38  H    5.751908   6.764602   7.036851   5.595272   4.432622
    39  H    6.227175   6.645320   6.792854   5.317410   4.178314
    40  H    8.174613   8.916678   9.140403   7.593934   6.484042
    41  H    7.774870   8.636788   9.111278   7.308641   6.375635
    42  H    8.587636   8.687553   8.976947   7.200917   6.349652
    43  H    9.405374   9.750821  10.195670   8.267057   7.466395
    44  H    8.650932   8.487711   9.101028   6.952218   6.520110
    45  H    8.092817   8.362881   9.087884   6.898143   6.399958
    46  H    6.596124   6.298492   6.758666   4.762725   4.209186
    47  H    6.400522   6.201686   6.989928   4.708416   4.487444
                   21         22         23         24         25
    21  C    0.000000
    22  C    1.542471   0.000000
    23  N    2.575516   1.471514   0.000000
    24  C    3.096482   2.452033   1.465828   0.000000
    25  C    4.546631   3.795654   2.465397   1.530077   0.000000
    26  C    4.948823   4.329384   2.912740   2.522658   1.525099
    27  C    4.558253   3.790372   2.467008   2.903172   2.506799
    28  C    3.113419   2.443501   1.467825   2.428818   2.903653
    29  O    2.806212   3.348479   4.515809   5.582122   6.875328
    30  F    4.894100   5.605401   6.982633   7.884860   9.311566
    31  O    5.680501   6.154364   7.620989   8.255172   9.747006
    32  H    7.466434   6.617088   7.475842   8.685843   9.601105
    33  H    2.131873   3.071628   4.393080   4.719181   6.248641
    34  H    1.094847   2.185334   2.873355   3.511047   4.785296
    35  H    1.094153   2.186965   2.864344   2.828555   4.289014
    36  H    2.159055   1.098425   2.094135   2.694457   4.051721
    37  H    2.166689   1.097602   2.094312   3.379573   4.549069
    38  H    3.359225   2.658118   2.109511   1.096536   2.142640
    39  H    2.835204   2.778604   2.125641   1.096872   2.154888
    40  H    5.161677   4.602774   3.409016   2.162184   1.095873
    41  H    5.112256   4.076818   2.759060   2.161242   1.097484
    42  H    4.897005   4.620159   3.365993   2.828751   2.155123
    43  H    6.035476   5.338421   3.885265   3.470963   2.161813
    44  H    5.178652   4.594966   3.410740   3.882514   3.455107
    45  H    5.124238   4.072586   2.761541   3.345678   2.816832
    46  H    2.851933   2.768438   2.126548   2.721433   3.325280
    47  H    3.388397   2.645682   2.111977   3.379033   3.889718
                   26         27         28         29         30
    26  C    0.000000
    27  C    1.525055   0.000000
    28  C    2.523527   1.530150   0.000000
    29  O    6.946940   6.022524   4.527942   0.000000
    30  F    9.578518   8.751896   7.236952   2.779137   0.000000
    31  O   10.436085   9.859255   8.382804   4.741003   2.925574
    32  H   10.045252   8.964196   7.997411   6.180572   6.426496
    33  H    6.918146   6.622001   5.189158   3.183938   3.910242
    34  H    4.846816   4.312717   2.857829   2.573752   4.941953
    35  H    4.843245   4.794624   3.529308   3.805259   5.630280
    36  H    4.901820   4.546282   3.372565   3.946720   5.798262
    37  H    4.889676   4.030807   2.665988   2.825830   5.167035
    38  H    3.456480   3.890406   3.378982   5.909805   7.956195
    39  H    2.813660   3.321847   2.720536   5.488612   7.727985
    40  H    2.157247   3.455103   3.883536   7.681433  10.017689
    41  H    2.155244   2.816692   3.344818   7.273220   9.681090
    42  H    1.096925   2.155049   2.830348   6.963390   9.558824
    43  H    1.095480   2.161776   3.471549   7.969744  10.628330
    44  H    2.157246   1.095874   2.162201   6.340704   9.114355
    45  H    2.154904   1.097494   2.160964   6.413548   9.105838
    46  H    2.817700   2.156234   1.096932   4.346828   7.026874
    47  H    3.456517   2.141937   1.096617   4.060793   6.809314
                   31         32         33         34         35
    31  O    0.000000
    32  H    6.301891   0.000000
    33  H    3.870449   7.305560   0.000000
    34  H    6.250439   7.874145   2.920748   0.000000
    35  H    6.129995   8.372017   2.287087   1.773913   0.000000
    36  H    5.805425   6.364807   2.943052   3.075074   2.529120
    37  H    5.949461   5.720985   3.463062   2.529661   3.081538
    38  H    7.929314   8.534367   4.534933   4.047776   2.980396
    39  H    8.223364   9.330278   4.466406   3.119107   2.292503
    40  H   10.311788  10.536304   6.710275   5.442814   4.689664
    41  H    9.968928   9.233309   6.709734   5.446848   4.978085
    42  H   10.540147  10.691690   6.873214   4.660834   4.664361
    43  H   11.473304  10.738941   7.989805   5.928130   5.922454
    44  H   10.492076   9.529341   7.295958   4.719387   5.462108
    45  H   10.087537   8.521114   7.083802   5.007213   5.450527
    46  H    8.354664   8.656711   4.981426   2.311564   3.150528
    47  H    8.159775   7.276456   5.352717   3.032553   4.075968
                   36         37         38         39         40
    36  H    0.000000
    37  H    1.735337   0.000000
    38  H    2.434173   3.634375   0.000000
    39  H    3.158650   3.780227   1.768039   0.000000
    40  H    4.748212   5.465106   2.483844   2.450386   0.000000
    41  H    4.167933   4.692105   2.437474   3.059185   1.762531
    42  H    5.279065   5.261801   3.815361   2.678204   2.442847
    43  H    5.851777   5.840927   4.279999   3.821190   2.520867
    44  H    5.459635   4.718763   4.917684   4.113547   4.283077
    45  H    4.683473   4.154916   4.151891   4.025741   3.821514
    46  H    3.779628   3.120901   3.723150   2.552916   4.118158
    47  H    3.613142   2.396643   4.205838   3.723496   4.917698
                   41         42         43         44         45
    41  H    0.000000
    42  H    3.056337   0.000000
    43  H    2.445803   1.763728   0.000000
    44  H    3.821681   2.442571   2.521119   0.000000
    45  H    2.684567   3.056009   2.445039   1.762467   0.000000
    46  H    4.027553   2.683551   3.825044   2.451014   3.059779
    47  H    4.148991   3.817063   4.279338   2.483964   2.435028
                   46         47
    46  H    0.000000
    47  H    1.768059   0.000000
 Symmetry turned off by external request.
 Stoichiometry    C15H16F10N2O4
 Framework group  C1[X(C15H16F10N2O4)]
 Deg. of freedom   135
 Full point group                 C1      NOp   1
 Rotational constants (GHZ):      0.2900973      0.0806469      0.0735307
 Leave Link  202 at Mon Feb  3 21:55:42 2025, MaxMem=  5368709120 cpu:         0.1
 (Enter /home/k0335/k033513/app/g09/l301.exe)
 Standard basis: 6-31G(d,p) (6D, 7F)
 Ernie: Thresh=  0.10000D-02 Tol=  0.10000D-05 Strict=F.
   545 basis functions,   980 primitive gaussians,   545 cartesian basis functions
   121 alpha electrons      121 beta electrons
       nuclear repulsion energy      3874.5658963132 Hartrees.
 IExCor=20419 DFT=T Ex+Corr=CAM-B3LYP ExCW=0 ScaHFX=  1.000000
 ScaDFX=  1.000000  1.000000  1.000000  0.810000 ScalE2=  1.000000  1.000000
 IRadAn=      0 IRanWt=     -1 IRanGd=            0 ICorTp=0 IEmpDi=  4
  HFx wShort=  0.000000 wLong=  0.330000 cFull=  0.190000 cShort=  0.000000 cLong=  0.460000
  DFx wShort=  0.000000 wLong=  0.330000 cFull=  0.190000 cShort=  0.000000 cLong=  0.460000
 NAtoms=   47 NActive=   47 NUniq=   47 SFac= 1.00D+00 NAtFMM=   60 NAOKFM=F Big=F
 Integral buffers will be    131072 words long.
 Raffenetti 2 integral format.
 Two-electron integral symmetry is turned off.
 Using the following non-standard input for PCM:
 eps=2.05
 --- end of non-standard input.
 ------------------------------------------------------------------------------
 Polarizable Continuum Model (PCM)
 =================================
 Model                : PCM (using non-symmetric T matrix).
 Atomic radii         : UFF (Universal Force Field).
 Polarization charges : Total charges.
 Charge compensation  : None.
 Solution method      : On-the-fly selection.
 Cavity type          : Scaled VdW (van der Waals Surface) (Alpha=1.100).
 Cavity algorithm     : GePol (No added spheres)
                        Default sphere list used, NSphG=   47.
                        Lebedev-Laikov grids with approx.  5.0 points / Ang**2.
                        Smoothing algorithm: Karplus/York (Gamma=1.0000).
                        Polarization charges: spherical gaussians, with
                                              point-specific exponents (IZeta= 3).
                        Self-potential: point-specific (ISelfS= 7).
                        Self-field    : sphere-specific E.n sum rule (ISelfD= 2).
 Solvent              : Generic,
                        Eps                           =   2.050000
                        Eps(infinity)                 =   0.000000
                        RSolv                         =   0.000000 Ang.
                        Molar volume                  =   0.000000 cm**3/mol
                        Thermal expansion coefficient =   0.000000 K**-1
                        Absolute temperature          = 298.150000 K
                        Numeral density               =   0.000000 Ang**-3
                        Hydrogen bond acidity         =   0.000000
                        Hydrogen bond basicity        =   0.000000
                        Surface tension at interface  =   0.000000 (cal/mol)*Ang**-2
                        Carbon aromaticity            =   0.000000
                        Electronegative halogenicity  =   0.000000
 ------------------------------------------------------------------------------
 GePol: Number of generator spheres                  =      47
 GePol: Total number of spheres                      =      47
 GePol: Number of exposed spheres                    =      47 (100.00%)
 GePol: Number of points                             =    3327
 GePol: Average weight of points                     =       0.13
 GePol: Minimum weight of points                     =   0.73D-11
 GePol: Maximum weight of points                     =    0.20577
 GePol: Number of points with low weight             =     184
 GePol: Fraction of low-weight points (<1% of avg)   =       5.53%
 GePol: Cavity surface area                          =    425.951 Ang**2
 GePol: Cavity volume                                =    491.076 Ang**3
 Leave Link  301 at Mon Feb  3 21:55:42 2025, MaxMem=  5368709120 cpu:         0.9
 (Enter /home/k0335/k033513/app/g09/l302.exe)
 NPDir=0 NMtPBC=     1 NCelOv=     1 NCel=       1 NClECP=     1 NCelD=      1
         NCelK=      1 NCelE2=     1 NClLst=     1 CellRange=     0.0.
 One-electron integrals computed using PRISM.
 NBasis=   545 RedAO= T EigKep=  8.92D-04  NBF=   545
 NBsUse=   545 1.00D-06 EigRej= -1.00D+00 NBFU=   545
 Precomputing XC quadrature grid using
 IXCGrd= 4 IRadAn=           0 IRanWt=          -1 IRanGd=           0 AccXCQ= 0.00D+00.
 Generated NRdTot=       0 NPtTot=           0 NUsed=           0 NTot=          32
 NSgBfM=   516   517   522   525   525 MxSgAt=    47 MxSgA2=    47.
 Leave Link  302 at Mon Feb  3 21:55:42 2025, MaxMem=  5368709120 cpu:        11.7
 (Enter /home/k0335/k033513/app/g09/l303.exe)
 DipDrv:  MaxL=1.
 Leave Link  303 at Mon Feb  3 21:55:43 2025, MaxMem=  5368709120 cpu:         0.9
 (Enter /home/k0335/k033513/app/g09/l401.exe)
 ExpMin= 1.61D-01 ExpMax= 7.00D+03 ExpMxC= 1.05D+03 IAcc=1 IRadAn=         1 AccDes= 0.00D+00
 Harris functional with IExCor=20419 and IRadAn=       1 diagonalized for initial guess.
 HarFok:  IExCor=20419 AccDes= 0.00D+00 IRadAn=         1 IDoV= 1 UseB2=F ITyADJ=14
 ICtDFT=  3500011 ScaDFX=  1.000000  1.000000  1.000000  1.000000
 FoFCou: FMM=F IPFlag=           0 FMFlag=      100000 FMFlg1=           0
         NFxFlg=           0 DoJE=T BraDBF=F KetDBF=T FulRan=T
         wScrn=  0.000000 ICntrl=     500 IOpCl=  0 I1Cent=   200000004 NGrid=           0
         NMat0=    1 NMatS0=      1 NMatT0=    0 NMatD0=    1 NMtDS0=    0 NMtDT0=    0
 Symmetry not used in FoFCou.
 Harris En= -1925.45969211800    
 JPrj=0 DoOrth=F DoCkMO=F.
 Leave Link  401 at Mon Feb  3 21:55:43 2025, MaxMem=  5368709120 cpu:        12.6
 (Enter /home/k0335/k033513/app/g09/l502.exe)
 Closed shell SCF:
 Using DIIS extrapolation, IDIIS=  1040.
 Two-electron integral symmetry not used.
 IVT=      926069 IEndB=      926069 NGot=  5368709120 MDV=  5368097262
 LenX=  5368097262 LenY=  5367799692
 Requested convergence on RMS density matrix=1.00D-08 within 128 cycles.
 Requested convergence on MAX density matrix=1.00D-06.
 Requested convergence on             energy=1.00D-06.
 No special actions if energy rises.
 Fock matrices will be formed incrementally for  20 cycles.

 Cycle   1  Pass 1  IDiag  1:
 FoFJK:  IHMeth= 1 ICntrl=       0 DoSepK=T KAlg= 0 I1Cent=   0 FoldK=F
 IRaf=         1 NMat=   1 IRICut=       1 DoRegI=T DoRafI=F ISym2E= 0.
 FoFCou: FMM=F IPFlag=           0 FMFlag=      100000 FMFlg1=           0
         NFxFlg=           0 DoJE=T BraDBF=F KetDBF=F FulRan=T
         wScrn=  0.000000 ICntrl=     500 IOpCl=  0 I1Cent=           0 NGrid=           0
         NMat0=    1 NMatS0=      1 NMatT0=    0 NMatD0=    1 NMtDS0=    0 NMtDT0=    0
 Symmetry not used in FoFCou.
 Inv3:  Mode=1 IEnd=    33206787.
 Iteration    1 A*A^-1 deviation from unit magnitude is 7.33D-15 for   3322.
 Iteration    1 A*A^-1 deviation from orthogonality  is 8.44D-15 for   3322   2254.
 Iteration    1 A^-1*A deviation from unit magnitude is 7.99D-15 for    134.
 Iteration    1 A^-1*A deviation from orthogonality  is 5.70D-15 for   2954   2934.
 E= -1988.76555920977    
 DIIS: error= 6.08D-02 at cycle   1 NSaved=   1.
 NSaved= 1 IEnMin= 1 EnMin= -1988.76555920977     IErMin= 1 ErrMin= 6.08D-02
 ErrMax= 6.08D-02  0.00D+00 EMaxC= 1.00D-01 BMatC= 1.61D+00 BMatP= 1.61D+00
 IDIUse=3 WtCom= 3.92D-01 WtEn= 6.08D-01
 Coeff-Com:  0.100D+01
 Coeff-En:   0.100D+01
 Coeff:      0.100D+01
 Gap=     0.483 Goal=   None    Shift=    0.000
 GapD=    0.483 DampG=2.000 DampE=0.500 DampFc=1.0000 IDamp=-1.
 RMSDP=2.79D-03 MaxDP=1.17D-01              OVMax= 1.26D-01

 Cycle   2  Pass 1  IDiag  1:
 RMSU=  2.79D-03    CP:  9.92D-01
 E= -1988.99528525078     Delta-E=       -0.229726041003 Rises=F Damp=F
 DIIS: error= 1.79D-02 at cycle   2 NSaved=   2.
 NSaved= 2 IEnMin= 2 EnMin= -1988.99528525078     IErMin= 2 ErrMin= 1.79D-02
 ErrMax= 1.79D-02  0.00D+00 EMaxC= 1.00D-01 BMatC= 5.99D-01 BMatP= 1.61D+00
 IDIUse=3 WtCom= 8.21D-01 WtEn= 1.79D-01
 Coeff-Com:  0.355D+00 0.645D+00
 Coeff-En:   0.343D+00 0.657D+00
 Coeff:      0.353D+00 0.647D+00
 Gap=     0.272 Goal=   None    Shift=    0.000
 RMSDP=1.31D-03 MaxDP=7.19D-02 DE=-2.30D-01 OVMax= 8.95D-02

 Cycle   3  Pass 1  IDiag  1:
 RMSU=  8.13D-04    CP:  9.99D-01  6.34D-01
 E= -1989.28022075823     Delta-E=       -0.284935507455 Rises=F Damp=F
 DIIS: error= 7.96D-03 at cycle   3 NSaved=   3.
 NSaved= 3 IEnMin= 3 EnMin= -1989.28022075823     IErMin= 3 ErrMin= 7.96D-03
 ErrMax= 7.96D-03  0.00D+00 EMaxC= 1.00D-01 BMatC= 1.13D-01 BMatP= 5.99D-01
 IDIUse=3 WtCom= 9.20D-01 WtEn= 7.96D-02
 Coeff-Com:  0.713D-01 0.319D+00 0.610D+00
 Coeff-En:   0.000D+00 0.127D+00 0.873D+00
 Coeff:      0.656D-01 0.304D+00 0.631D+00
 Gap=     0.277 Goal=   None    Shift=    0.000
 RMSDP=5.98D-04 MaxDP=3.90D-02 DE=-2.85D-01 OVMax= 6.24D-02

 Cycle   4  Pass 1  IDiag  1:
 RMSU=  3.16D-04    CP:  9.94D-01  7.26D-01  4.68D-01
 E= -1989.34637599385     Delta-E=       -0.066155235620 Rises=F Damp=F
 DIIS: error= 3.79D-03 at cycle   4 NSaved=   4.
 NSaved= 4 IEnMin= 4 EnMin= -1989.34637599385     IErMin= 4 ErrMin= 3.79D-03
 ErrMax= 3.79D-03  0.00D+00 EMaxC= 1.00D-01 BMatC= 1.13D-02 BMatP= 1.13D-01
 IDIUse=3 WtCom= 9.62D-01 WtEn= 3.79D-02
 Coeff-Com:  0.652D-02 0.985D-01 0.325D+00 0.570D+00
 Coeff-En:   0.000D+00 0.000D+00 0.409D-01 0.959D+00
 Coeff:      0.628D-02 0.948D-01 0.314D+00 0.585D+00
 Gap=     0.264 Goal=   None    Shift=    0.000
 RMSDP=1.84D-04 MaxDP=1.45D-02 DE=-6.62D-02 OVMax= 2.39D-02

 Cycle   5  Pass 1  IDiag  1:
 RMSU=  8.53D-05    CP:  9.94D-01  7.25D-01  6.11D-01  6.39D-01
 E= -1989.35413203931     Delta-E=       -0.007756045455 Rises=F Damp=F
 DIIS: error= 1.17D-03 at cycle   5 NSaved=   5.
 NSaved= 5 IEnMin= 5 EnMin= -1989.35413203931     IErMin= 5 ErrMin= 1.17D-03
 ErrMax= 1.17D-03  0.00D+00 EMaxC= 1.00D-01 BMatC= 7.33D-04 BMatP= 1.13D-02
 IDIUse=3 WtCom= 9.88D-01 WtEn= 1.17D-02
 Coeff-Com:  0.360D-03 0.391D-01 0.151D+00 0.332D+00 0.477D+00
 Coeff-En:   0.000D+00 0.000D+00 0.000D+00 0.000D+00 0.100D+01
 Coeff:      0.355D-03 0.387D-01 0.150D+00 0.328D+00 0.483D+00
 Gap=     0.262 Goal=   None    Shift=    0.000
 RMSDP=4.16D-05 MaxDP=3.67D-03 DE=-7.76D-03 OVMax= 6.98D-03

 Cycle   6  Pass 1  IDiag  1:
 RMSU=  2.37D-05    CP:  9.94D-01  7.27D-01  6.09D-01  6.61D-01  6.14D-01
 E= -1989.35466117697     Delta-E=       -0.000529137662 Rises=F Damp=F
 DIIS: error= 1.47D-04 at cycle   6 NSaved=   6.
 NSaved= 6 IEnMin= 6 EnMin= -1989.35466117697     IErMin= 6 ErrMin= 1.47D-04
 ErrMax= 1.47D-04  0.00D+00 EMaxC= 1.00D-01 BMatC= 2.47D-05 BMatP= 7.33D-04
 IDIUse=3 WtCom= 9.99D-01 WtEn= 1.47D-03
 Coeff-Com: -0.541D-03 0.360D-02 0.201D-01 0.543D-01 0.180D+00 0.742D+00
 Coeff-En:   0.000D+00 0.000D+00 0.000D+00 0.000D+00 0.000D+00 0.100D+01
 Coeff:     -0.540D-03 0.360D-02 0.201D-01 0.542D-01 0.180D+00 0.742D+00
 Gap=     0.263 Goal=   None    Shift=    0.000
 RMSDP=1.22D-05 MaxDP=6.97D-04 DE=-5.29D-04 OVMax= 1.14D-03

 Cycle   7  Pass 1  IDiag  1:
 RMSU=  8.48D-06    CP:  9.94D-01  7.27D-01  6.12D-01  6.76D-01  6.90D-01
                    CP:  9.14D-01
 E= -1989.35467949796     Delta-E=       -0.000018320988 Rises=F Damp=F
 DIIS: error= 5.03D-05 at cycle   7 NSaved=   7.
 NSaved= 7 IEnMin= 7 EnMin= -1989.35467949796     IErMin= 7 ErrMin= 5.03D-05
 ErrMax= 5.03D-05  0.00D+00 EMaxC= 1.00D-01 BMatC= 4.54D-06 BMatP= 2.47D-05
 IDIUse=1 WtCom= 1.00D+00 WtEn= 0.00D+00
 Coeff-Com: -0.234D-03-0.381D-02-0.112D-01-0.201D-01 0.269D-01 0.358D+00
 Coeff-Com:  0.650D+00
 Coeff:     -0.234D-03-0.381D-02-0.112D-01-0.201D-01 0.269D-01 0.358D+00
 Coeff:      0.650D+00
 Gap=     0.263 Goal=   None    Shift=    0.000
 RMSDP=4.04D-06 MaxDP=2.69D-04 DE=-1.83D-05 OVMax= 4.79D-04

 Cycle   8  Pass 1  IDiag  1:
 RMSU=  2.49D-06    CP:  9.94D-01  7.27D-01  6.12D-01  6.76D-01  7.06D-01
                    CP:  1.01D+00  8.35D-01
 E= -1989.35468332723     Delta-E=       -0.000003829275 Rises=F Damp=F
 DIIS: error= 1.41D-05 at cycle   8 NSaved=   8.
 NSaved= 8 IEnMin= 8 EnMin= -1989.35468332723     IErMin= 8 ErrMin= 1.41D-05
 ErrMax= 1.41D-05  0.00D+00 EMaxC= 1.00D-01 BMatC= 2.62D-07 BMatP= 4.54D-06
 IDIUse=1 WtCom= 1.00D+00 WtEn= 0.00D+00
 Coeff-Com: -0.449D-04-0.173D-02-0.571D-02-0.123D-01-0.135D-02 0.745D-01
 Coeff-Com:  0.244D+00 0.703D+00
 Coeff:     -0.449D-04-0.173D-02-0.571D-02-0.123D-01-0.135D-02 0.745D-01
 Coeff:      0.244D+00 0.703D+00
 Gap=     0.263 Goal=   None    Shift=    0.000
 RMSDP=1.28D-06 MaxDP=6.46D-05 DE=-3.83D-06 OVMax= 1.38D-04

 Cycle   9  Pass 1  IDiag  1:
 RMSU=  9.10D-07    CP:  9.94D-01  7.27D-01  6.13D-01  6.76D-01  7.13D-01
                    CP:  1.03D+00  8.92D-01  1.03D+00
 E= -1989.35468357813     Delta-E=       -0.000000250897 Rises=F Damp=F
 DIIS: error= 4.79D-06 at cycle   9 NSaved=   9.
 NSaved= 9 IEnMin= 9 EnMin= -1989.35468357813     IErMin= 9 ErrMin= 4.79D-06
 ErrMax= 4.79D-06  0.00D+00 EMaxC= 1.00D-01 BMatC= 3.54D-08 BMatP= 2.62D-07
 IDIUse=1 WtCom= 1.00D+00 WtEn= 0.00D+00
 Coeff-Com:  0.132D-04-0.102D-03-0.478D-03-0.191D-02-0.364D-02-0.303D-01
 Coeff-Com: -0.566D-02 0.243D+00 0.799D+00
 Coeff:      0.132D-04-0.102D-03-0.478D-03-0.191D-02-0.364D-02-0.303D-01
 Coeff:     -0.566D-02 0.243D+00 0.799D+00
 Gap=     0.263 Goal=   None    Shift=    0.000
 RMSDP=6.49D-07 MaxDP=5.18D-05 DE=-2.51D-07 OVMax= 7.02D-05

 Cycle  10  Pass 1  IDiag  1:
 RMSU=  3.41D-07    CP:  9.94D-01  7.27D-01  6.13D-01  6.76D-01  7.16D-01
                    CP:  1.04D+00  9.23D-01  1.15D+00  9.85D-01
 E= -1989.35468362371     Delta-E=       -0.000000045578 Rises=F Damp=F
 DIIS: error= 1.56D-06 at cycle  10 NSaved=  10.
 NSaved=10 IEnMin=10 EnMin= -1989.35468362371     IErMin=10 ErrMin= 1.56D-06
 ErrMax= 1.56D-06  0.00D+00 EMaxC= 1.00D-01 BMatC= 3.76D-09 BMatP= 3.54D-08
 IDIUse=1 WtCom= 1.00D+00 WtEn= 0.00D+00
 Coeff-Com:  0.110D-04 0.184D-03 0.558D-03 0.851D-03-0.471D-03-0.194D-01
 Coeff-Com: -0.303D-01-0.178D-01 0.260D+00 0.806D+00
 Coeff:      0.110D-04 0.184D-03 0.558D-03 0.851D-03-0.471D-03-0.194D-01
 Coeff:     -0.303D-01-0.178D-01 0.260D+00 0.806D+00
 Gap=     0.263 Goal=   None    Shift=    0.000
 RMSDP=2.18D-07 MaxDP=1.19D-05 DE=-4.56D-08 OVMax= 3.22D-05

 Cycle  11  Pass 1  IDiag  1:
 RMSU=  1.03D-07    CP:  9.94D-01  7.27D-01  6.13D-01  6.76D-01  7.17D-01
                    CP:  1.04D+00  9.34D-01  1.19D+00  1.11D+00  9.89D-01
 E= -1989.35468362831     Delta-E=       -0.000000004599 Rises=F Damp=F
 DIIS: error= 6.51D-07 at cycle  11 NSaved=  11.
 NSaved=11 IEnMin=11 EnMin= -1989.35468362831     IErMin=11 ErrMin= 6.51D-07
 ErrMax= 6.51D-07  0.00D+00 EMaxC= 1.00D-01 BMatC= 6.00D-10 BMatP= 3.76D-09
 IDIUse=1 WtCom= 1.00D+00 WtEn= 0.00D+00
 Coeff-Com:  0.415D-05 0.972D-04 0.307D-03 0.558D-03 0.218D-03-0.664D-02
 Coeff-Com: -0.132D-01-0.291D-01 0.547D-01 0.367D+00 0.626D+00
 Coeff:      0.415D-05 0.972D-04 0.307D-03 0.558D-03 0.218D-03-0.664D-02
 Coeff:     -0.132D-01-0.291D-01 0.547D-01 0.367D+00 0.626D+00
 Gap=     0.263 Goal=   None    Shift=    0.000
 RMSDP=6.06D-08 MaxDP=5.16D-06 DE=-4.60D-09 OVMax= 7.96D-06

 Cycle  12  Pass 1  IDiag  1:
 RMSU=  4.02D-08    CP:  9.94D-01  7.27D-01  6.13D-01  6.76D-01  7.17D-01
                    CP:  1.04D+00  9.35D-01  1.20D+00  1.13D+00  1.07D+00
                    CP:  9.16D-01
 E= -1989.35468362862     Delta-E=       -0.000000000316 Rises=F Damp=F
 DIIS: error= 3.83D-07 at cycle  12 NSaved=  12.
 NSaved=12 IEnMin=12 EnMin= -1989.35468362862     IErMin=12 ErrMin= 3.83D-07
 ErrMax= 3.83D-07  0.00D+00 EMaxC= 1.00D-01 BMatC= 8.35D-11 BMatP= 6.00D-10
 IDIUse=1 WtCom= 1.00D+00 WtEn= 0.00D+00
 Coeff-Com: -0.250D-06 0.108D-04 0.389D-04 0.966D-04 0.268D-03 0.556D-03
 Coeff-Com: -0.145D-03-0.962D-02-0.216D-01 0.165D-01 0.274D+00 0.740D+00
 Coeff:     -0.250D-06 0.108D-04 0.389D-04 0.966D-04 0.268D-03 0.556D-03
 Coeff:     -0.145D-03-0.962D-02-0.216D-01 0.165D-01 0.274D+00 0.740D+00
 Gap=     0.263 Goal=   None    Shift=    0.000
 RMSDP=2.40D-08 MaxDP=2.03D-06 DE=-3.16D-10 OVMax= 5.11D-06

 Cycle  13  Pass 1  IDiag  1:
 RMSU=  1.42D-08    CP:  9.94D-01  7.27D-01  6.13D-01  6.76D-01  7.17D-01
                    CP:  1.04D+00  9.35D-01  1.20D+00  1.14D+00  1.10D+00
                    CP:  1.03D+00  8.82D-01
 E= -1989.35468362871     Delta-E=       -0.000000000091 Rises=F Damp=F
 DIIS: error= 1.40D-07 at cycle  13 NSaved=  13.
 NSaved=13 IEnMin=13 EnMin= -1989.35468362871     IErMin=13 ErrMin= 1.40D-07
 ErrMax= 1.40D-07  0.00D+00 EMaxC= 1.00D-01 BMatC= 1.46D-11 BMatP= 8.35D-11
 IDIUse=1 WtCom= 1.00D+00 WtEn= 0.00D+00
 Coeff-Com: -0.568D-06-0.450D-05-0.115D-04-0.872D-05 0.125D-03 0.969D-03
 Coeff-Com:  0.134D-02-0.197D-02-0.174D-01-0.322D-01 0.696D-01 0.384D+00
 Coeff-Com:  0.596D+00
 Coeff:     -0.568D-06-0.450D-05-0.115D-04-0.872D-05 0.125D-03 0.969D-03
 Coeff:      0.134D-02-0.197D-02-0.174D-01-0.322D-01 0.696D-01 0.384D+00
 Coeff:      0.596D+00
 Gap=     0.263 Goal=   None    Shift=    0.000
 RMSDP=8.86D-09 MaxDP=8.02D-07 DE=-9.09D-11 OVMax= 1.40D-06

 Error on total polarization charges =  0.00367
 SCF Done:  E(RCAM-B3LYP) =  -1989.35468363     A.U. after   13 cycles
            NFock= 13  Conv=0.89D-08     -V/T= 2.0076
 KE= 1.974270171816D+03 PE=-1.243645412312D+04 EE= 4.598263371363D+03
 Leave Link  502 at Mon Feb  3 21:56:29 2025, MaxMem=  5368709120 cpu:      1036.8
 (Enter /home/k0335/k033513/app/g09/l601.exe)
 Copying SCF densities to generalized density rwf, IOpCl= 0 IROHF=0.

 **********************************************************************

            Population analysis using the SCF density.

 **********************************************************************

 Alpha  occ. eigenvalues --  -24.83535 -24.83344 -24.83298 -24.82813 -24.82806
 Alpha  occ. eigenvalues --  -24.82732 -24.82584 -24.82099 -24.81437 -24.81279
 Alpha  occ. eigenvalues --  -19.31562 -19.30387 -19.25693 -19.21499 -14.45329
 Alpha  occ. eigenvalues --  -14.39489 -10.52468 -10.49315 -10.49001 -10.47657
 Alpha  occ. eigenvalues --  -10.47472 -10.44646 -10.43015 -10.39721 -10.30069
 Alpha  occ. eigenvalues --  -10.28146 -10.27714 -10.27427 -10.24922 -10.24814
 Alpha  occ. eigenvalues --  -10.24762  -1.40578  -1.38548  -1.37962  -1.36978
 Alpha  occ. eigenvalues --   -1.36038  -1.34183  -1.32860  -1.31779  -1.31526
 Alpha  occ. eigenvalues --   -1.30050  -1.22347  -1.19651  -1.13651  -1.12560
 Alpha  occ. eigenvalues --   -1.01866  -1.00019  -0.97773  -0.90488  -0.88865
 Alpha  occ. eigenvalues --   -0.87822  -0.84133  -0.82987  -0.80863  -0.78144
 Alpha  occ. eigenvalues --   -0.76545  -0.74357  -0.73262  -0.71230  -0.70473
 Alpha  occ. eigenvalues --   -0.70094  -0.69767  -0.68938  -0.68437  -0.67306
 Alpha  occ. eigenvalues --   -0.66863  -0.66014  -0.65554  -0.65108  -0.64822
 Alpha  occ. eigenvalues --   -0.64239  -0.62986  -0.62409  -0.61757  -0.58586
 Alpha  occ. eigenvalues --   -0.57606  -0.57022  -0.56729  -0.56218  -0.55620
 Alpha  occ. eigenvalues --   -0.55012  -0.54740  -0.54419  -0.53824  -0.53667
 Alpha  occ. eigenvalues --   -0.53629  -0.53242  -0.52720  -0.52656  -0.52490
 Alpha  occ. eigenvalues --   -0.52331  -0.51913  -0.51517  -0.50894  -0.50803
 Alpha  occ. eigenvalues --   -0.50398  -0.50257  -0.50031  -0.49836  -0.49371
 Alpha  occ. eigenvalues --   -0.48906  -0.48298  -0.48081  -0.46262  -0.46094
 Alpha  occ. eigenvalues --   -0.45631  -0.45586  -0.44363  -0.44121  -0.43108
 Alpha  occ. eigenvalues --   -0.42621  -0.41318  -0.41186  -0.39720  -0.38443
 Alpha  occ. eigenvalues --   -0.38104  -0.36952  -0.36768  -0.34444  -0.33468
 Alpha  occ. eigenvalues --   -0.26747
 Alpha virt. eigenvalues --   -0.00475   0.02243   0.04178   0.09297   0.10157
 Alpha virt. eigenvalues --    0.11470   0.12373   0.13056   0.13648   0.14726
 Alpha virt. eigenvalues --    0.15684   0.16788   0.17328   0.17774   0.19274
 Alpha virt. eigenvalues --    0.19962   0.20238   0.20969   0.21380   0.22166
 Alpha virt. eigenvalues --    0.22481   0.22906   0.23352   0.23727   0.24047
 Alpha virt. eigenvalues --    0.24448   0.24931   0.25390   0.26112   0.27010
 Alpha virt. eigenvalues --    0.27859   0.28433   0.29066   0.29979   0.30200
 Alpha virt. eigenvalues --    0.30985   0.31363   0.31629   0.32549   0.32964
 Alpha virt. eigenvalues --    0.33115   0.33932   0.34114   0.34474   0.34756
 Alpha virt. eigenvalues --    0.36813   0.38254   0.40579   0.42299   0.44801
 Alpha virt. eigenvalues --    0.48278   0.49674   0.51125   0.52408   0.54181
 Alpha virt. eigenvalues --    0.54293   0.55745   0.56688   0.56882   0.57516
 Alpha virt. eigenvalues --    0.58639   0.59471   0.59933   0.60280   0.60472
 Alpha virt. eigenvalues --    0.61402   0.61982   0.62078   0.62943   0.64019
 Alpha virt. eigenvalues --    0.64623   0.65743   0.66365   0.66665   0.68188
 Alpha virt. eigenvalues --    0.69230   0.70009   0.70617   0.71165   0.72482
 Alpha virt. eigenvalues --    0.72910   0.73439   0.74400   0.75909   0.76506
 Alpha virt. eigenvalues --    0.77717   0.78006   0.78751   0.79229   0.80193
 Alpha virt. eigenvalues --    0.80926   0.83930   0.85951   0.86549   0.86866
 Alpha virt. eigenvalues --    0.87412   0.87763   0.88167   0.88742   0.89715
 Alpha virt. eigenvalues --    0.89749   0.90629   0.91129   0.91912   0.92977
 Alpha virt. eigenvalues --    0.93661   0.94543   0.94697   0.95237   0.96044
 Alpha virt. eigenvalues --    0.96900   0.97414   0.98710   0.99318   0.99957
 Alpha virt. eigenvalues --    1.00460   1.00898   1.01206   1.02654   1.03552
 Alpha virt. eigenvalues --    1.04207   1.04634   1.05356   1.06908   1.07558
 Alpha virt. eigenvalues --    1.08651   1.09997   1.10937   1.11238   1.11768
 Alpha virt. eigenvalues --    1.12868   1.14230   1.14976   1.15917   1.17033
 Alpha virt. eigenvalues --    1.18311   1.20244   1.21388   1.22932   1.24009
 Alpha virt. eigenvalues --    1.25088   1.25232   1.25922   1.28245   1.29257
 Alpha virt. eigenvalues --    1.29735   1.31065   1.32332   1.32614   1.33394
 Alpha virt. eigenvalues --    1.33737   1.35040   1.35201   1.35775   1.35974
 Alpha virt. eigenvalues --    1.37114   1.38076   1.38400   1.39068   1.39758
 Alpha virt. eigenvalues --    1.41095   1.41995   1.42405   1.42689   1.43104
 Alpha virt. eigenvalues --    1.44062   1.44603   1.45105   1.45609   1.46553
 Alpha virt. eigenvalues --    1.47380   1.48141   1.48834   1.48903   1.50182
 Alpha virt. eigenvalues --    1.50996   1.52098   1.52711   1.54089   1.55297
 Alpha virt. eigenvalues --    1.56168   1.56621   1.57149   1.58381   1.60022
 Alpha virt. eigenvalues --    1.61119   1.61675   1.63856   1.64979   1.65424
 Alpha virt. eigenvalues --    1.66977   1.67901   1.68586   1.69448   1.69853
 Alpha virt. eigenvalues --    1.70290   1.71998   1.72502   1.72677   1.73386
 Alpha virt. eigenvalues --    1.74563   1.75350   1.76007   1.77611   1.78660
 Alpha virt. eigenvalues --    1.79035   1.80471   1.80907   1.81655   1.82071
 Alpha virt. eigenvalues --    1.82632   1.83140   1.83781   1.84473   1.84743
 Alpha virt. eigenvalues --    1.85145   1.85748   1.86600   1.87659   1.88472
 Alpha virt. eigenvalues --    1.88677   1.89237   1.89623   1.90688   1.90837
 Alpha virt. eigenvalues --    1.91731   1.92263   1.93738   1.94216   1.94601
 Alpha virt. eigenvalues --    1.95631   1.95924   1.97327   1.97860   1.98253
 Alpha virt. eigenvalues --    1.98884   1.99351   2.00518   2.01627   2.01859
 Alpha virt. eigenvalues --    2.02237   2.02462   2.03181   2.04284   2.04933
 Alpha virt. eigenvalues --    2.04984   2.05404   2.06893   2.07432   2.07685
 Alpha virt. eigenvalues --    2.08218   2.08492   2.09693   2.10045   2.10173
 Alpha virt. eigenvalues --    2.10718   2.11569   2.13136   2.13706   2.14585
 Alpha virt. eigenvalues --    2.15762   2.16908   2.17613   2.18144   2.18555
 Alpha virt. eigenvalues --    2.19316   2.19831   2.19956   2.21206   2.22382
 Alpha virt. eigenvalues --    2.23249   2.23609   2.24091   2.25768   2.26657
 Alpha virt. eigenvalues --    2.27037   2.27567   2.28468   2.28825   2.29742
 Alpha virt. eigenvalues --    2.30747   2.32120   2.32814   2.33440   2.33814
 Alpha virt. eigenvalues --    2.35443   2.36154   2.37011   2.38541   2.39246
 Alpha virt. eigenvalues --    2.39880   2.40278   2.41256   2.42005   2.42258
 Alpha virt. eigenvalues --    2.43004   2.43534   2.44306   2.44384   2.45419
 Alpha virt. eigenvalues --    2.45616   2.46685   2.46866   2.47693   2.49083
 Alpha virt. eigenvalues --    2.49518   2.52500   2.54043   2.55595   2.56718
 Alpha virt. eigenvalues --    2.57653   2.57984   2.58316   2.59487   2.60887
 Alpha virt. eigenvalues --    2.61580   2.62170   2.63302   2.66317   2.68029
 Alpha virt. eigenvalues --    2.68410   2.69381   2.70239   2.71107   2.71799
 Alpha virt. eigenvalues --    2.72256   2.72981   2.73828   2.74481   2.76889
 Alpha virt. eigenvalues --    2.77675   2.78561   2.79353   2.80052   2.81390
 Alpha virt. eigenvalues --    2.81592   2.82043   2.82838   2.83965   2.85029
 Alpha virt. eigenvalues --    2.86425   2.87275   2.89635   2.90888   2.91284
 Alpha virt. eigenvalues --    2.92369   2.93507   2.93685   2.93938   2.95520
 Alpha virt. eigenvalues --    2.96468   2.97574   2.98074   2.99497   3.00413
 Alpha virt. eigenvalues --    3.01519   3.03055   3.03509   3.03615   3.04144
 Alpha virt. eigenvalues --    3.06182   3.06500   3.07300   3.10709   3.11215
 Alpha virt. eigenvalues --    3.11564   3.14929   3.15331   3.18393   3.20119
 Alpha virt. eigenvalues --    3.20533   3.22885   3.24065   3.28402   3.29338
 Alpha virt. eigenvalues --    3.31576   3.34193   3.34657   3.36677   3.36979
 Alpha virt. eigenvalues --    3.38152   3.40934   3.41525   3.44313   3.47229
 Alpha virt. eigenvalues --    3.49936   3.54471   3.55495   3.55962   3.56744
 Alpha virt. eigenvalues --    3.60257   3.65183   3.65682   3.98247   4.13428
 Alpha virt. eigenvalues --    4.21099   4.25704   4.25942   4.31888   4.37440
 Alpha virt. eigenvalues --    4.40401   4.42030   4.43550   4.48380   4.51599
 Alpha virt. eigenvalues --    4.52905   4.66285   4.69924   4.71709   4.77190
 Alpha virt. eigenvalues --    4.79892   4.81384   4.84239   4.93786   4.98963
 Alpha virt. eigenvalues --    5.06861   5.17720   5.30922   5.53259   5.67121
 Alpha virt. eigenvalues --    5.90686   6.26049   6.49590   6.86347
          Condensed to atoms (all electrons):
               1          2          3          4          5          6
     1  F    9.038631   0.313417  -0.041959  -0.024088  -0.000424  -0.000120
     2  C    0.313417   4.368860   0.274761   0.216406  -0.017713  -0.022491
     3  F   -0.041959   0.274761   9.098173  -0.030443   0.000309   0.000106
     4  C   -0.024088   0.216406  -0.030443   4.838098   0.243920   0.267479
     5  F   -0.000424  -0.017713   0.000309   0.243920   9.094276  -0.039608
     6  F   -0.000120  -0.022491   0.000106   0.267479  -0.039608   9.070637
     7  C    0.001347  -0.072785   0.001500   0.077853  -0.044621  -0.026615
     8  F    0.000001   0.010142  -0.000028  -0.021877   0.000393  -0.000409
     9  C   -0.000032   0.004397  -0.000003  -0.037501   0.003456  -0.006731
    10  F    0.000000  -0.000037   0.000000   0.005533  -0.001365  -0.000037
    11  C    0.000000  -0.000073  -0.000007  -0.007150  -0.001328   0.012058
    12  O    0.000000   0.000000   0.000000  -0.000106  -0.000001  -0.000137
    13  O    0.000000   0.000079   0.000000   0.009409  -0.000183  -0.003994
    14  F    0.000000  -0.000091   0.000000   0.002389   0.000000  -0.000001
    15  C    0.001402  -0.026825   0.001461  -0.048429   0.009725   0.002120
    16  F   -0.000003   0.000801  -0.000014   0.001242   0.000000  -0.000001
    17  C    0.000177   0.002419   0.000030  -0.000657   0.002301   0.000009
    18  F   -0.000001   0.000232   0.000000  -0.000075  -0.000002   0.000000
    19  C    0.000000  -0.000006   0.000001   0.000511  -0.000084   0.000000
    20  N    0.000000  -0.000001   0.000000  -0.000009   0.000000   0.000000
    21  C    0.000000   0.000000   0.000000   0.000000   0.000000   0.000000
    22  C    0.000000   0.000000   0.000000   0.000000   0.000000   0.000000
    23  N    0.000000   0.000000   0.000000   0.000000   0.000000   0.000000
    24  C    0.000000   0.000000   0.000000   0.000000   0.000000   0.000000
    25  C    0.000000   0.000000   0.000000   0.000000   0.000000   0.000000
    26  C    0.000000   0.000000   0.000000   0.000000   0.000000   0.000000
    27  C    0.000000   0.000000   0.000000   0.000000   0.000000   0.000000
    28  C    0.000000   0.000000   0.000000   0.000000   0.000000   0.000000
    29  O    0.000000  -0.000002   0.000000   0.000020   0.000001   0.000000
    30  F   -0.000023   0.001353   0.000000   0.001620  -0.003220   0.000000
    31  O   -0.042404   0.190842  -0.052785  -0.042637  -0.001372   0.000732
    32  H    0.000000  -0.000001   0.000000  -0.000075   0.000000   0.000008
    33  H    0.000000  -0.000001   0.000000  -0.000005   0.000000   0.000000
    34  H    0.000000   0.000000   0.000000   0.000000   0.000000   0.000000
    35  H    0.000000   0.000000   0.000000   0.000000   0.000000   0.000000
    36  H    0.000000   0.000000   0.000000   0.000000   0.000000   0.000000
    37  H    0.000000   0.000000   0.000000  -0.000001   0.000000   0.000000
    38  H    0.000000   0.000000   0.000000   0.000000   0.000000   0.000000
    39  H    0.000000   0.000000   0.000000   0.000000   0.000000   0.000000
    40  H    0.000000   0.000000   0.000000   0.000000   0.000000   0.000000
    41  H    0.000000   0.000000   0.000000   0.000000   0.000000   0.000000
    42  H    0.000000   0.000000   0.000000   0.000000   0.000000   0.000000
    43  H    0.000000   0.000000   0.000000   0.000000   0.000000   0.000000
    44  H    0.000000   0.000000   0.000000   0.000000   0.000000   0.000000
    45  H    0.000000   0.000000   0.000000   0.000000   0.000000   0.000000
    46  H    0.000000   0.000000   0.000000   0.000000   0.000000   0.000000
    47  H    0.000000   0.000000   0.000000   0.000000   0.000000   0.000000
               7          8          9         10         11         12
     1  F    0.001347   0.000001  -0.000032   0.000000   0.000000   0.000000
     2  C   -0.072785   0.010142   0.004397  -0.000037  -0.000073   0.000000
     3  F    0.001500  -0.000028  -0.000003   0.000000  -0.000007   0.000000
     4  C    0.077853  -0.021877  -0.037501   0.005533  -0.007150  -0.000106
     5  F   -0.044621   0.000393   0.003456  -0.001365  -0.001328  -0.000001
     6  F   -0.026615  -0.000409  -0.006731  -0.000037   0.012058  -0.000137
     7  C    5.573218   0.183827   0.229824  -0.035900  -0.071460   0.003858
     8  F    0.183827   9.151414  -0.029925   0.000338   0.009034  -0.000612
     9  C    0.229824  -0.029925   4.624397   0.260207   0.227888  -0.073717
    10  F   -0.035900   0.000338   0.260207   9.089693  -0.027884   0.000581
    11  C   -0.071460   0.009034   0.227888  -0.027884   4.558301   0.262295
    12  O    0.003858  -0.000612  -0.073717   0.000581   0.262295   8.088286
    13  O   -0.003117  -0.000062  -0.051395  -0.001209   0.537493  -0.093488
    14  F   -0.033197  -0.000524   0.241953  -0.038167  -0.027228   0.001909
    15  C    0.147459  -0.005802  -0.016078  -0.007543   0.004510  -0.000140
    16  F   -0.020254  -0.002318  -0.003354   0.000018  -0.000055   0.000000
    17  C   -0.054253   0.001639  -0.000322   0.011794  -0.000027   0.000000
    18  F    0.002325  -0.000001  -0.000042   0.000003   0.000000   0.000000
    19  C   -0.003910  -0.000012   0.003516  -0.000020   0.000048   0.000000
    20  N    0.000433   0.000001  -0.000624   0.000049  -0.000009   0.000000
    21  C    0.000012   0.000000   0.000001   0.000001   0.000000   0.000000
    22  C   -0.000015   0.000000   0.000048   0.000000  -0.000001   0.000000
    23  N    0.000000   0.000000   0.000000   0.000000   0.000000   0.000000
    24  C    0.000000   0.000000   0.000000   0.000000   0.000000   0.000000
    25  C    0.000000   0.000000   0.000000   0.000000   0.000000   0.000000
    26  C    0.000000   0.000000   0.000000   0.000000   0.000000   0.000000
    27  C    0.000000   0.000000   0.000000   0.000000   0.000000   0.000000
    28  C    0.000000   0.000000   0.000000   0.000000   0.000000   0.000000
    29  O   -0.000038   0.000000   0.005598  -0.003116   0.000043   0.000000
    30  F    0.004962   0.000000  -0.001583  -0.001206   0.000011   0.000000
    31  O   -0.017623  -0.003262   0.002327   0.000016  -0.000073   0.000000
    32  H   -0.000216   0.000077   0.007762  -0.000040  -0.013058   0.283161
    33  H    0.000358   0.000000   0.000022   0.000001   0.000001   0.000000
    34  H   -0.000001   0.000000  -0.000002   0.000001   0.000000   0.000000
    35  H    0.000000   0.000000   0.000000   0.000000   0.000000   0.000000
    36  H   -0.000013   0.000000   0.000023   0.000000  -0.000001   0.000000
    37  H    0.000035   0.000000   0.000083  -0.000002   0.000001   0.000000
    38  H    0.000000   0.000000   0.000000   0.000000   0.000000   0.000000
    39  H    0.000000   0.000000   0.000000   0.000000   0.000000   0.000000
    40  H    0.000000   0.000000   0.000000   0.000000   0.000000   0.000000
    41  H    0.000000   0.000000   0.000000   0.000000   0.000000   0.000000
    42  H    0.000000   0.000000   0.000000   0.000000   0.000000   0.000000
    43  H    0.000000   0.000000   0.000000   0.000000   0.000000   0.000000
    44  H    0.000000   0.000000   0.000000   0.000000   0.000000   0.000000
    45  H    0.000000   0.000000   0.000000   0.000000   0.000000   0.000000
    46  H    0.000000   0.000000   0.000000   0.000000   0.000000   0.000000
    47  H    0.000000   0.000000   0.000000   0.000000   0.000000   0.000000
              13         14         15         16         17         18
     1  F    0.000000   0.000000   0.001402  -0.000003   0.000177  -0.000001
     2  C    0.000079  -0.000091  -0.026825   0.000801   0.002419   0.000232
     3  F    0.000000   0.000000   0.001461  -0.000014   0.000030   0.000000
     4  C    0.009409   0.002389  -0.048429   0.001242  -0.000657  -0.000075
     5  F   -0.000183   0.000000   0.009725   0.000000   0.002301  -0.000002
     6  F   -0.003994  -0.000001   0.002120  -0.000001   0.000009   0.000000
     7  C   -0.003117  -0.033197   0.147459  -0.020254  -0.054253   0.002325
     8  F   -0.000062  -0.000524  -0.005802  -0.002318   0.001639  -0.000001
     9  C   -0.051395   0.241953  -0.016078  -0.003354  -0.000322  -0.000042
    10  F   -0.001209  -0.038167  -0.007543   0.000018   0.011794   0.000003
    11  C    0.537493  -0.027228   0.004510  -0.000055  -0.000027   0.000000
    12  O   -0.093488   0.001909  -0.000140   0.000000   0.000000   0.000000
    13  O    8.037572   0.000733  -0.000057   0.000000   0.000000   0.000000
    14  F    0.000733   9.110864   0.004742   0.000081  -0.005751   0.000001
    15  C   -0.000057   0.004742   4.952037   0.248744   0.189879  -0.017199
    16  F    0.000000   0.000081   0.248744   9.125442  -0.035912  -0.000467
    17  C    0.000000  -0.005751   0.189879  -0.035912   4.777380   0.235019
    18  F    0.000000   0.000001  -0.017199  -0.000467   0.235019   9.130715
    19  C   -0.000002   0.012494  -0.078267   0.002815   0.233956  -0.036230
    20  N    0.000000  -0.000892   0.006540  -0.004558  -0.084250   0.000895
    21  C    0.000000  -0.000279  -0.000333   0.000073   0.004042   0.000017
    22  C    0.000000  -0.000558   0.000048   0.000019  -0.000296   0.000000
    23  N    0.000000   0.000012   0.000000   0.000000   0.000000   0.000000
    24  C    0.000000   0.000000   0.000000   0.000000   0.000000   0.000000
    25  C    0.000000   0.000000   0.000000   0.000000   0.000000   0.000000
    26  C    0.000000   0.000000   0.000000   0.000000   0.000000   0.000000
    27  C    0.000000   0.000000   0.000000   0.000000   0.000000   0.000000
    28  C    0.000000   0.000001   0.000000   0.000000   0.000000   0.000000
    29  O    0.000000  -0.003509   0.000726   0.000008  -0.053358   0.000763
    30  F    0.000000   0.000015  -0.029662   0.000338   0.257625  -0.039879
    31  O    0.000000   0.000019   0.164376  -0.044733  -0.032168  -0.001010
    32  H    0.008155  -0.000118   0.000009   0.000000   0.000000   0.000000
    33  H    0.000000  -0.000006  -0.001431   0.010138   0.001845   0.005457
    34  H    0.000000   0.000000   0.000000  -0.000005   0.000243  -0.000010
    35  H    0.000000  -0.000001   0.000002  -0.000013  -0.000092  -0.000004
    36  H    0.000000   0.000096   0.000067   0.000168  -0.000013   0.000000
    37  H    0.000000   0.005553  -0.000010   0.000005   0.000089   0.000000
    38  H    0.000000   0.000000   0.000000   0.000000   0.000000   0.000000
    39  H    0.000000   0.000000   0.000000   0.000000   0.000000   0.000000
    40  H    0.000000   0.000000   0.000000   0.000000   0.000000   0.000000
    41  H    0.000000   0.000000   0.000000   0.000000   0.000000   0.000000
    42  H    0.000000   0.000000   0.000000   0.000000   0.000000   0.000000
    43  H    0.000000   0.000000   0.000000   0.000000   0.000000   0.000000
    44  H    0.000000   0.000000   0.000000   0.000000   0.000000   0.000000
    45  H    0.000000   0.000000   0.000000   0.000000   0.000000   0.000000
    46  H    0.000000   0.000000   0.000000   0.000000   0.000000   0.000000
    47  H    0.000000  -0.000003   0.000000   0.000000   0.000000   0.000000
              19         20         21         22         23         24
     1  F    0.000000   0.000000   0.000000   0.000000   0.000000   0.000000
     2  C   -0.000006  -0.000001   0.000000   0.000000   0.000000   0.000000
     3  F    0.000001   0.000000   0.000000   0.000000   0.000000   0.000000
     4  C    0.000511  -0.000009   0.000000   0.000000   0.000000   0.000000
     5  F   -0.000084   0.000000   0.000000   0.000000   0.000000   0.000000
     6  F    0.000000   0.000000   0.000000   0.000000   0.000000   0.000000
     7  C   -0.003910   0.000433   0.000012  -0.000015   0.000000   0.000000
     8  F   -0.000012   0.000001   0.000000   0.000000   0.000000   0.000000
     9  C    0.003516  -0.000624   0.000001   0.000048   0.000000   0.000000
    10  F   -0.000020   0.000049   0.000001   0.000000   0.000000   0.000000
    11  C    0.000048  -0.000009   0.000000  -0.000001   0.000000   0.000000
    12  O    0.000000   0.000000   0.000000   0.000000   0.000000   0.000000
    13  O   -0.000002   0.000000   0.000000   0.000000   0.000000   0.000000
    14  F    0.012494  -0.000892  -0.000279  -0.000558   0.000012   0.000000
    15  C   -0.078267   0.006540  -0.000333   0.000048   0.000000   0.000000
    16  F    0.002815  -0.004558   0.000073   0.000019   0.000000   0.000000
    17  C    0.233956  -0.084250   0.004042  -0.000296   0.000000   0.000000
    18  F   -0.036230   0.000895   0.000017   0.000000   0.000000   0.000000
    19  C    4.628647   0.230686  -0.033596  -0.002827   0.000081   0.000003
    20  N    0.230686   7.035395   0.235737  -0.044522   0.002934   0.000088
    21  C   -0.033596   0.235737   4.922915   0.325565  -0.048809  -0.007483
    22  C   -0.002827  -0.044522   0.325565   4.849801   0.327880  -0.047697
    23  N    0.000081   0.002934  -0.048809   0.327880   6.893400   0.309889
    24  C    0.000003   0.000088  -0.007483  -0.047697   0.309889   4.813536
    25  C    0.000000   0.000000   0.000086   0.004068  -0.046535   0.379194
    26  C    0.000000   0.000000  -0.000101   0.000254  -0.012875  -0.038650
    27  C    0.000000   0.000000   0.000091   0.004096  -0.046241  -0.014844
    28  C   -0.000020   0.000091  -0.007223  -0.047765   0.308969  -0.044073
    29  O    0.539380  -0.104034   0.005856  -0.003556  -0.000009  -0.000001
    30  F   -0.023906   0.001443  -0.000012   0.000000   0.000000   0.000000
    31  O    0.002683  -0.000047   0.000001   0.000000   0.000000   0.000000
    32  H    0.000000   0.000000   0.000000   0.000000   0.000000   0.000000
    33  H   -0.027310   0.340109  -0.023233   0.000843  -0.000057  -0.000001
    34  H   -0.004550  -0.038097   0.392893  -0.040625  -0.000122  -0.000221
    35  H    0.005373  -0.033519   0.387032  -0.040842  -0.001377   0.003206
    36  H    0.000194   0.003120  -0.055845   0.386855  -0.038116  -0.004470
    37  H    0.004507  -0.004516  -0.046143   0.389216  -0.034346   0.005034
    38  H    0.000001  -0.000002  -0.001849  -0.003505  -0.039900   0.388979
    39  H   -0.000008  -0.000165   0.005234  -0.005510  -0.056348   0.364616
    40  H    0.000000   0.000000   0.000006  -0.000121   0.003889  -0.032672
    41  H    0.000000   0.000000   0.000017  -0.000060   0.002026  -0.036782
    42  H    0.000000   0.000000   0.000007  -0.000058  -0.000981  -0.004528
    43  H    0.000000   0.000000   0.000000   0.000008  -0.000041   0.004913
    44  H    0.000000   0.000000   0.000005  -0.000121   0.003867   0.000026
    45  H    0.000000   0.000000   0.000017  -0.000060   0.001956  -0.000883
    46  H   -0.000025  -0.000108   0.005626  -0.005517  -0.056554  -0.009125
    47  H    0.000004  -0.000002  -0.001725  -0.003575  -0.038742   0.005192
              25         26         27         28         29         30
     1  F    0.000000   0.000000   0.000000   0.000000   0.000000  -0.000023
     2  C    0.000000   0.000000   0.000000   0.000000  -0.000002   0.001353
     3  F    0.000000   0.000000   0.000000   0.000000   0.000000   0.000000
     4  C    0.000000   0.000000   0.000000   0.000000   0.000020   0.001620
     5  F    0.000000   0.000000   0.000000   0.000000   0.000001  -0.003220
     6  F    0.000000   0.000000   0.000000   0.000000   0.000000   0.000000
     7  C    0.000000   0.000000   0.000000   0.000000  -0.000038   0.004962
     8  F    0.000000   0.000000   0.000000   0.000000   0.000000   0.000000
     9  C    0.000000   0.000000   0.000000   0.000000   0.005598  -0.001583
    10  F    0.000000   0.000000   0.000000   0.000000  -0.003116  -0.001206
    11  C    0.000000   0.000000   0.000000   0.000000   0.000043   0.000011
    12  O    0.000000   0.000000   0.000000   0.000000   0.000000   0.000000
    13  O    0.000000   0.000000   0.000000   0.000000   0.000000   0.000000
    14  F    0.000000   0.000000   0.000000   0.000001  -0.003509   0.000015
    15  C    0.000000   0.000000   0.000000   0.000000   0.000726  -0.029662
    16  F    0.000000   0.000000   0.000000   0.000000   0.000008   0.000338
    17  C    0.000000   0.000000   0.000000   0.000000  -0.053358   0.257625
    18  F    0.000000   0.000000   0.000000   0.000000   0.000763  -0.039879
    19  C    0.000000   0.000000   0.000000  -0.000020   0.539380  -0.023906
    20  N    0.000000   0.000000   0.000000   0.000091  -0.104034   0.001443
    21  C    0.000086  -0.000101   0.000091  -0.007223   0.005856  -0.000012
    22  C    0.004068   0.000254   0.004096  -0.047765  -0.003556   0.000000
    23  N   -0.046535  -0.012875  -0.046241   0.308969  -0.000009   0.000000
    24  C    0.379194  -0.038650  -0.014844  -0.044073  -0.000001   0.000000
    25  C    4.916452   0.380466  -0.047789  -0.014898   0.000000   0.000000
    26  C    0.380466   4.906599   0.379813  -0.038942   0.000000   0.000000
    27  C   -0.047789   0.379813   4.918891   0.377924   0.000000   0.000000
    28  C   -0.014898  -0.038942   0.377924   4.810483  -0.000025   0.000000
    29  O    0.000000   0.000000   0.000000  -0.000025   8.109380  -0.000822
    30  F    0.000000   0.000000   0.000000   0.000000  -0.000822   9.096300
    31  O    0.000000   0.000000   0.000000   0.000000  -0.000012  -0.000303
    32  H    0.000000   0.000000   0.000000   0.000000   0.000000   0.000000
    33  H    0.000000   0.000000   0.000000   0.000002   0.002904   0.000094
    34  H   -0.000009   0.000013  -0.000086   0.002815   0.008658   0.000000
    35  H   -0.000090   0.000011  -0.000012  -0.000216   0.000449   0.000000
    36  H    0.000103   0.000020  -0.000206   0.005509   0.000015   0.000000
    37  H   -0.000187   0.000016   0.000112  -0.004640   0.004419   0.000000
    38  H   -0.027748   0.004863   0.000045   0.005262   0.000000   0.000000
    39  H   -0.045737  -0.009745  -0.000151  -0.008766   0.000000   0.000000
    40  H    0.377968  -0.034349   0.005281   0.000031   0.000000   0.000000
    41  H    0.382699  -0.041174  -0.004107  -0.000867   0.000000   0.000000
    42  H   -0.041443   0.384100  -0.041360  -0.004312   0.000000   0.000000
    43  H   -0.033569   0.387225  -0.033355   0.004854   0.000000   0.000000
    44  H    0.005301  -0.034349   0.378583  -0.032272   0.000000   0.000000
    45  H   -0.004160  -0.041508   0.382520  -0.036727   0.000000   0.000000
    46  H   -0.000118  -0.009588  -0.045946   0.367506  -0.000028   0.000000
    47  H    0.000053   0.004825  -0.028082   0.391671   0.000048   0.000000
              31         32         33         34         35         36
     1  F   -0.042404   0.000000   0.000000   0.000000   0.000000   0.000000
     2  C    0.190842  -0.000001  -0.000001   0.000000   0.000000   0.000000
     3  F   -0.052785   0.000000   0.000000   0.000000   0.000000   0.000000
     4  C   -0.042637  -0.000075  -0.000005   0.000000   0.000000   0.000000
     5  F   -0.001372   0.000000   0.000000   0.000000   0.000000   0.000000
     6  F    0.000732   0.000008   0.000000   0.000000   0.000000   0.000000
     7  C   -0.017623  -0.000216   0.000358  -0.000001   0.000000  -0.000013
     8  F   -0.003262   0.000077   0.000000   0.000000   0.000000   0.000000
     9  C    0.002327   0.007762   0.000022  -0.000002   0.000000   0.000023
    10  F    0.000016  -0.000040   0.000001   0.000001   0.000000   0.000000
    11  C   -0.000073  -0.013058   0.000001   0.000000   0.000000  -0.000001
    12  O    0.000000   0.283161   0.000000   0.000000   0.000000   0.000000
    13  O    0.000000   0.008155   0.000000   0.000000   0.000000   0.000000
    14  F    0.000019  -0.000118  -0.000006   0.000000  -0.000001   0.000096
    15  C    0.164376   0.000009  -0.001431   0.000000   0.000002   0.000067
    16  F   -0.044733   0.000000   0.010138  -0.000005  -0.000013   0.000168
    17  C   -0.032168   0.000000   0.001845   0.000243  -0.000092  -0.000013
    18  F   -0.001010   0.000000   0.005457  -0.000010  -0.000004   0.000000
    19  C    0.002683   0.000000  -0.027310  -0.004550   0.005373   0.000194
    20  N   -0.000047   0.000000   0.340109  -0.038097  -0.033519   0.003120
    21  C    0.000001   0.000000  -0.023233   0.392893   0.387032  -0.055845
    22  C    0.000000   0.000000   0.000843  -0.040625  -0.040842   0.386855
    23  N    0.000000   0.000000  -0.000057  -0.000122  -0.001377  -0.038116
    24  C    0.000000   0.000000  -0.000001  -0.000221   0.003206  -0.004470
    25  C    0.000000   0.000000   0.000000  -0.000009  -0.000090   0.000103
    26  C    0.000000   0.000000   0.000000   0.000013   0.000011   0.000020
    27  C    0.000000   0.000000   0.000000  -0.000086  -0.000012  -0.000206
    28  C    0.000000   0.000000   0.000002   0.002815  -0.000216   0.005509
    29  O   -0.000012   0.000000   0.002904   0.008658   0.000449   0.000015
    30  F   -0.000303   0.000000   0.000094   0.000000   0.000000   0.000000
    31  O    8.383451   0.000000  -0.000025   0.000000   0.000000   0.000000
    32  H    0.000000   0.351976   0.000000   0.000000   0.000000   0.000000
    33  H   -0.000025   0.000000   0.407270   0.003568  -0.005853   0.001074
    34  H    0.000000   0.000000   0.003568   0.562862  -0.030508   0.005168
    35  H    0.000000   0.000000  -0.005853  -0.030508   0.597472  -0.004990
    36  H    0.000000   0.000000   0.001074   0.005168  -0.004990   0.631235
    37  H    0.000000   0.000000  -0.000142  -0.005303   0.004833  -0.032308
    38  H    0.000000   0.000000   0.000001   0.000052   0.000543   0.005699
    39  H    0.000000   0.000000   0.000010   0.000159   0.000166  -0.001093
    40  H    0.000000   0.000000   0.000000   0.000000   0.000007  -0.000013
    41  H    0.000000   0.000000   0.000000   0.000000  -0.000001  -0.000032
    42  H    0.000000   0.000000   0.000000  -0.000004  -0.000004  -0.000001
    43  H    0.000000   0.000000   0.000000   0.000000   0.000000   0.000000
    44  H    0.000000   0.000000   0.000000   0.000005   0.000000   0.000003
    45  H    0.000000   0.000000   0.000000  -0.000001   0.000000  -0.000014
    46  H    0.000000   0.000000   0.000000   0.000226   0.000179  -0.000396
    47  H    0.000000   0.000000   0.000000   0.000506   0.000038   0.000218
              37         38         39         40         41         42
     1  F    0.000000   0.000000   0.000000   0.000000   0.000000   0.000000
     2  C    0.000000   0.000000   0.000000   0.000000   0.000000   0.000000
     3  F    0.000000   0.000000   0.000000   0.000000   0.000000   0.000000
     4  C   -0.000001   0.000000   0.000000   0.000000   0.000000   0.000000
     5  F    0.000000   0.000000   0.000000   0.000000   0.000000   0.000000
     6  F    0.000000   0.000000   0.000000   0.000000   0.000000   0.000000
     7  C    0.000035   0.000000   0.000000   0.000000   0.000000   0.000000
     8  F    0.000000   0.000000   0.000000   0.000000   0.000000   0.000000
     9  C    0.000083   0.000000   0.000000   0.000000   0.000000   0.000000
    10  F   -0.000002   0.000000   0.000000   0.000000   0.000000   0.000000
    11  C    0.000001   0.000000   0.000000   0.000000   0.000000   0.000000
    12  O    0.000000   0.000000   0.000000   0.000000   0.000000   0.000000
    13  O    0.000000   0.000000   0.000000   0.000000   0.000000   0.000000
    14  F    0.005553   0.000000   0.000000   0.000000   0.000000   0.000000
    15  C   -0.000010   0.000000   0.000000   0.000000   0.000000   0.000000
    16  F    0.000005   0.000000   0.000000   0.000000   0.000000   0.000000
    17  C    0.000089   0.000000   0.000000   0.000000   0.000000   0.000000
    18  F    0.000000   0.000000   0.000000   0.000000   0.000000   0.000000
    19  C    0.004507   0.000001  -0.000008   0.000000   0.000000   0.000000
    20  N   -0.004516  -0.000002  -0.000165   0.000000   0.000000   0.000000
    21  C   -0.046143  -0.001849   0.005234   0.000006   0.000017   0.000007
    22  C    0.389216  -0.003505  -0.005510  -0.000121  -0.000060  -0.000058
    23  N   -0.034346  -0.039900  -0.056348   0.003889   0.002026  -0.000981
    24  C    0.005034   0.388979   0.364616  -0.032672  -0.036782  -0.004528
    25  C   -0.000187  -0.027748  -0.045737   0.377968   0.382699  -0.041443
    26  C    0.000016   0.004863  -0.009745  -0.034349  -0.041174   0.384100
    27  C    0.000112   0.000045  -0.000151   0.005281  -0.004107  -0.041360
    28  C   -0.004640   0.005262  -0.008766   0.000031  -0.000867  -0.004312
    29  O    0.004419   0.000000   0.000000   0.000000   0.000000   0.000000
    30  F    0.000000   0.000000   0.000000   0.000000   0.000000   0.000000
    31  O    0.000000   0.000000   0.000000   0.000000   0.000000   0.000000
    32  H    0.000000   0.000000   0.000000   0.000000   0.000000   0.000000
    33  H   -0.000142   0.000001   0.000010   0.000000   0.000000   0.000000
    34  H   -0.005303   0.000052   0.000159   0.000000   0.000000  -0.000004
    35  H    0.004833   0.000543   0.000166   0.000007  -0.000001  -0.000004
    36  H   -0.032308   0.005699  -0.001093  -0.000013  -0.000032  -0.000001
    37  H    0.589596   0.000163  -0.000342   0.000003  -0.000012  -0.000001
    38  H    0.000163   0.626829  -0.047726  -0.002613  -0.006432  -0.000080
    39  H   -0.000342  -0.047726   0.707627  -0.001483   0.006688   0.005507
    40  H    0.000003  -0.002613  -0.001483   0.633131  -0.032973  -0.005232
    41  H   -0.000012  -0.006432   0.006688  -0.032973   0.623182   0.006092
    42  H   -0.000001  -0.000080   0.005507  -0.005232   0.006092   0.641164
    43  H    0.000000  -0.000159  -0.000123  -0.002637  -0.005702  -0.035338
    44  H   -0.000012   0.000010   0.000066  -0.000170   0.000000  -0.005262
    45  H   -0.000026  -0.000052   0.000295   0.000002   0.004699   0.006109
    46  H   -0.000952  -0.000336   0.013108   0.000067   0.000289   0.005434
    47  H    0.005137  -0.000166  -0.000331   0.000009  -0.000050  -0.000079
              43         44         45         46         47
     1  F    0.000000   0.000000   0.000000   0.000000   0.000000
     2  C    0.000000   0.000000   0.000000   0.000000   0.000000
     3  F    0.000000   0.000000   0.000000   0.000000   0.000000
     4  C    0.000000   0.000000   0.000000   0.000000   0.000000
     5  F    0.000000   0.000000   0.000000   0.000000   0.000000
     6  F    0.000000   0.000000   0.000000   0.000000   0.000000
     7  C    0.000000   0.000000   0.000000   0.000000   0.000000
     8  F    0.000000   0.000000   0.000000   0.000000   0.000000
     9  C    0.000000   0.000000   0.000000   0.000000   0.000000
    10  F    0.000000   0.000000   0.000000   0.000000   0.000000
    11  C    0.000000   0.000000   0.000000   0.000000   0.000000
    12  O    0.000000   0.000000   0.000000   0.000000   0.000000
    13  O    0.000000   0.000000   0.000000   0.000000   0.000000
    14  F    0.000000   0.000000   0.000000   0.000000  -0.000003
    15  C    0.000000   0.000000   0.000000   0.000000   0.000000
    16  F    0.000000   0.000000   0.000000   0.000000   0.000000
    17  C    0.000000   0.000000   0.000000   0.000000   0.000000
    18  F    0.000000   0.000000   0.000000   0.000000   0.000000
    19  C    0.000000   0.000000   0.000000  -0.000025   0.000004
    20  N    0.000000   0.000000   0.000000  -0.000108  -0.000002
    21  C    0.000000   0.000005   0.000017   0.005626  -0.001725
    22  C    0.000008  -0.000121  -0.000060  -0.005517  -0.003575
    23  N   -0.000041   0.003867   0.001956  -0.056554  -0.038742
    24  C    0.004913   0.000026  -0.000883  -0.009125   0.005192
    25  C   -0.033569   0.005301  -0.004160  -0.000118   0.000053
    26  C    0.387225  -0.034349  -0.041508  -0.009588   0.004825
    27  C   -0.033355   0.378583   0.382520  -0.045946  -0.028082
    28  C    0.004854  -0.032272  -0.036727   0.367506   0.391671
    29  O    0.000000   0.000000   0.000000  -0.000028   0.000048
    30  F    0.000000   0.000000   0.000000   0.000000   0.000000
    31  O    0.000000   0.000000   0.000000   0.000000   0.000000
    32  H    0.000000   0.000000   0.000000   0.000000   0.000000
    33  H    0.000000   0.000000   0.000000   0.000000   0.000000
    34  H    0.000000   0.000005  -0.000001   0.000226   0.000506
    35  H    0.000000   0.000000   0.000000   0.000179   0.000038
    36  H    0.000000   0.000003  -0.000014  -0.000396   0.000218
    37  H    0.000000  -0.000012  -0.000026  -0.000952   0.005137
    38  H   -0.000159   0.000010  -0.000052  -0.000336  -0.000166
    39  H   -0.000123   0.000066   0.000295   0.013108  -0.000331
    40  H   -0.002637  -0.000170   0.000002   0.000067   0.000009
    41  H   -0.005702   0.000000   0.004699   0.000289  -0.000050
    42  H   -0.035338  -0.005262   0.006109   0.005434  -0.000079
    43  H    0.627445  -0.002617  -0.005716  -0.000123  -0.000156
    44  H   -0.002617   0.630364  -0.032876  -0.001601  -0.002575
    45  H   -0.005716  -0.032876   0.624381   0.006628  -0.006326
    46  H   -0.000123  -0.001601   0.006628   0.700405  -0.045618
    47  H   -0.000156  -0.002575  -0.006326  -0.045618   0.611674
 Mulliken charges:
               1
     1  F   -0.245923
     2  C    0.756316
     3  F   -0.251104
     4  C    0.548572
     5  F   -0.244460
     6  F   -0.253004
     7  C    0.157007
     8  F   -0.292034
     9  C    0.609805
    10  F   -0.251709
    11  C    0.536672
    12  O   -0.471890
    13  O   -0.439934
    14  F   -0.270535
    15  C    0.497929
    16  F   -0.278207
    17  C    0.548650
    18  F   -0.280508
    19  C    0.545874
    20  N   -0.542163
    21  C   -0.058605
    22  C   -0.041471
    23  N   -0.433850
    24  C   -0.033246
    25  C   -0.184107
    26  C   -0.186925
    27  C   -0.185176
    28  C   -0.034370
    29  O   -0.509760
    30  F   -0.263144
    31  O   -0.505993
    32  H    0.362358
    33  H    0.284364
    34  H    0.142378
    35  H    0.118212
    36  H    0.097942
    37  H    0.120140
    38  H    0.098121
    39  H    0.074051
    40  H    0.091869
    41  H    0.102500
    42  H    0.090270
    43  H    0.095092
    44  H    0.093627
    45  H    0.101743
    46  H    0.076570
    47  H    0.108055
 Sum of Mulliken charges =   0.00000
 Mulliken charges with hydrogens summed into heavy atoms:
               1
     1  F   -0.245923
     2  C    0.756316
     3  F   -0.251104
     4  C    0.548572
     5  F   -0.244460
     6  F   -0.253004
     7  C    0.157007
     8  F   -0.292034
     9  C    0.609805
    10  F   -0.251709
    11  C    0.536672
    12  O   -0.109532
    13  O   -0.439934
    14  F   -0.270535
    15  C    0.497929
    16  F   -0.278207
    17  C    0.548650
    18  F   -0.280508
    19  C    0.545874
    20  N   -0.257799
    21  C    0.201985
    22  C    0.176611
    23  N   -0.433850
    24  C    0.138926
    25  C    0.010262
    26  C   -0.001563
    27  C    0.010194
    28  C    0.150255
    29  O   -0.509760
    30  F   -0.263144
    31  O   -0.505993
 Electronic spatial extent (au):  <R**2>=          16689.8561
 Charge=              0.0000 electrons
 Dipole moment (field-independent basis, Debye):
    X=             -2.0495    Y=              3.4189    Z=             -0.5432  Tot=              4.0230
 Quadrupole moment (field-independent basis, Debye-Ang):
   XX=           -175.3399   YY=           -182.7033   ZZ=           -160.9928
   XY=              7.6229   XZ=              7.8502   YZ=              5.6008
 Traceless Quadrupole moment (field-independent basis, Debye-Ang):
   XX=             -2.3279   YY=             -9.6912   ZZ=             12.0192
   XY=              7.6229   XZ=              7.8502   YZ=              5.6008
 Octapole moment (field-independent basis, Debye-Ang**2):
  XXX=           -723.9355  YYY=            185.6597  ZZZ=            -26.0223  XYY=           -233.8069
  XXY=             78.9392  XXZ=             -9.9349  XZZ=           -210.7755  YZZ=             96.4941
  YYZ=            -31.7145  XYZ=             32.1123
 Hexadecapole moment (field-independent basis, Debye-Ang**3):
 XXXX=         -15039.2019 YYYY=          -1882.2617 ZZZZ=          -2276.8415 XXXY=           1450.5537
 XXXZ=           -493.3330 YYYX=           1413.3582 YYYZ=             -5.5046 ZZZX=           -389.8002
 ZZZY=            146.2446 XXYY=          -2826.3859 XXZZ=          -2933.0443 YYZZ=           -742.8844
 XXYZ=             95.8159 YYXZ=           -176.0040 ZZXY=            625.1220
 N-N= 3.874565896313D+03 E-N=-1.243645412169D+04  KE= 1.974270171816D+03
 No NMR shielding tensors so no spin-rotation constants.
 Leave Link  601 at Mon Feb  3 21:56:30 2025, MaxMem=  5368709120 cpu:         3.5
 (Enter /home/k0335/k033513/app/g09/l9999.exe)
 1\1\GINC-C15U05N1\SP\RCAM-B3LYP\6-31G(d,p)\C15H16F10N2O4\K033513\03-Fe
 b-2025\0\\#p CAM-B3LYP/6-31G(d,p) SCRF=(PCM,Solvent=Generic,Read) NoSy
 mm out=wfn\\Title AEP2_neu\\0,1\F,0,6.441882,-1.429621,-1.104635\C,0,5
 .50661,-0.581064,-0.637422\F,0,6.066408,0.64909,-0.579076\C,0,4.927206
 ,-0.999071,0.698713\F,0,4.722432,-2.331858,0.75317\F,0,5.696435,-0.670
 906,1.751739\C,0,3.633151,-0.253588,0.65333\F,0,3.923228,1.087024,0.79
 2625\C,0,2.650759,-0.644784,1.713368\F,0,2.390677,-1.973365,1.620604\C
 ,0,3.16483,-0.281624,3.102336\O,0,2.83383,0.963964,3.505407\O,0,3.8436
 74,-0.992036,3.828432\F,0,1.471185,-0.014349,1.435061\C,0,3.210999,-0.
 471813,-0.800643\F,0,2.547056,0.646351,-1.228192\C,0,2.369927,-1.70415
 6,-1.209378\F,0,2.480231,-1.842403,-2.574458\C,0,0.872286,-1.557734,-0
 .867775\N,0,0.176066,-0.640234,-1.637654\C,0,-1.235268,-0.365368,-1.41
 9924\C,0,-1.465819,0.616127,-0.252564\N,0,-2.85393,1.008855,0.037721\C
 ,0,-3.49579,1.721788,-1.070609\C,0,-4.861317,2.266167,-0.6462\C,0,-5.7
 59158,1.155437,-0.11133\C,0,-5.041949,0.365696,0.978492\C,0,-3.669727,
 -0.118324,0.50511\O,0,0.320815,-2.202572,0.021643\F,0,2.928816,-2.8344
 26,-0.701331\O,0,4.441693,-0.488837,-1.577915\H,0,3.211984,1.054579,4.
 407025\H,0,0.667736,-0.099199,-2.343294\H,0,-1.744101,-1.316711,-1.233
 574\H,0,-1.614544,0.048152,-2.359244\H,0,-0.88272,1.527362,-0.442784\H
 ,0,-1.027118,0.197049,0.662119\H,0,-2.872206,2.567802,-1.38333\H,0,-3.
 624593,1.068694,-1.942392\H,0,-5.346302,2.754904,-1.498763\H,0,-4.7272
 87,3.032415,0.12799\H,0,-6.033843,0.480538,-0.931271\H,0,-6.689192,1.5
 80126,0.282055\H,0,-5.654574,-0.492605,1.276737\H,0,-4.921844,0.997319
 ,1.867941\H,0,-3.803914,-0.865906,-0.286328\H,0,-3.174719,-0.616885,1.
 347115\\Version=ES64L-G09RevD.01\HF=-1989.3546836\RMSD=8.858e-09\Dipol
 e=-0.8063205,1.3451012,-0.2136948\Quadrupole=-1.7307544,-7.2052066,8.9
 35961,5.6674384,5.8364567,4.1640684\PG=C01 [X(C15H16F10N2O4)]\\@

 Writing a WFN file to "cytop/AEP2/AEP2_neu.wfn"


 LEARN FROM YESTERDAY,
 LIVE FOR TODAY,
 LOOK TO TOMORROW,
 REST THIS AFTERNOON.

           -- SNOOPY
 Job cpu time:       0 days  0 hours 17 minutes 52.9 seconds.
 File lengths (MBytes):  RWF=    342 Int=      0 D2E=      0 Chk=     12 Scr=      1
 Normal termination of Gaussian 09 at Mon Feb  3 21:56:30 2025.
