 Entering Gaussian System, Link 0=g09
 Initial command:
 /home/k0335/k033513/app/g09/l1.exe "/home/k0335/k033513/app/g09/scratch/Gau-468933.inp" -scrdir="/home/k0335/k033513/app/g09/scratch/"
 Default is to use a total of  36 processors:
                               36 via shared-memory
                                1 via Linda
 Entering Link 1 = /home/k0335/k033513/app/g09/l1.exe PID=    468934.
  
 Copyright (c) 1988,1990,1992,1993,1995,1998,2003,2009,2013,
            Gaussian, Inc.  All Rights Reserved.
  
 This is part of the Gaussian(R) 09 program.  It is based on
 the Gaussian(R) 03 system (copyright 2003, Gaussian, Inc.),
 the Gaussian(R) 98 system (copyright 1998, Gaussian, Inc.),
 the Gaussian(R) 94 system (copyright 1995, Gaussian, Inc.),
 the Gaussian 92(TM) system (copyright 1992, Gaussian, Inc.),
 the Gaussian 90(TM) system (copyright 1990, Gaussian, Inc.),
 the Gaussian 88(TM) system (copyright 1988, Gaussian, Inc.),
 the Gaussian 86(TM) system (copyright 1986, Carnegie Mellon
 University), and the Gaussian 82(TM) system (copyright 1983,
 Carnegie Mellon University). Gaussian is a federally registered
 trademark of Gaussian, Inc.
  
 This software contains proprietary and confidential information,
 including trade secrets, belonging to Gaussian, Inc.
  
 This software is provided under written license and may be
 used, copied, transmitted, or stored only in accord with that
 written license.
  
 The following legend is applicable only to US Government
 contracts under FAR:
  
                    RESTRICTED RIGHTS LEGEND
  
 Use, reproduction and disclosure by the US Government is
 subject to restrictions as set forth in subparagraphs (a)
 and (c) of the Commercial Computer Software - Restricted
 Rights clause in FAR 52.227-19.
  
 Gaussian, Inc.
 340 Quinnipiac St., Bldg. 40, Wallingford CT 06492
  
  
 ---------------------------------------------------------------
 Warning -- This program may not be used in any manner that
 competes with the business of Gaussian, Inc. or will provide
 assistance to any competitor of Gaussian, Inc.  The licensee
 of this program is prohibited from giving any competitor of
 Gaussian, Inc. access to this program.  By using this program,
 the user acknowledges that Gaussian, Inc. is engaged in the
 business of creating and licensing software in the field of
 computational chemistry and represents and warrants to the
 licensee that it is not a competitor of Gaussian, Inc. and that
 it will not use this program in any manner prohibited above.
 ---------------------------------------------------------------
  

 Cite this work as:
 Gaussian 09, Revision D.01,
 M. J. Frisch, G. W. Trucks, H. B. Schlegel, G. E. Scuseria, 
 M. A. Robb, J. R. Cheeseman, G. Scalmani, V. Barone, B. Mennucci, 
 G. A. Petersson, H. Nakatsuji, M. Caricato, X. Li, H. P. Hratchian, 
 A. F. Izmaylov, J. Bloino, G. Zheng, J. L. Sonnenberg, M. Hada, 
 M. Ehara, K. Toyota, R. Fukuda, J. Hasegawa, M. Ishida, T. Nakajima, 
 Y. Honda, O. Kitao, H. Nakai, T. Vreven, J. A. Montgomery, Jr., 
 J. E. Peralta, F. Ogliaro, M. Bearpark, J. J. Heyd, E. Brothers, 
 K. N. Kudin, V. N. Staroverov, T. Keith, R. Kobayashi, J. Normand, 
 K. Raghavachari, A. Rendell, J. C. Burant, S. S. Iyengar, J. Tomasi, 
 M. Cossi, N. Rega, J. M. Millam, M. Klene, J. E. Knox, J. B. Cross, 
 V. Bakken, C. Adamo, J. Jaramillo, R. Gomperts, R. E. Stratmann, 
 O. Yazyev, A. J. Austin, R. Cammi, C. Pomelli, J. W. Ochterski, 
 R. L. Martin, K. Morokuma, V. G. Zakrzewski, G. A. Voth, 
 P. Salvador, J. J. Dannenberg, S. Dapprich, A. D. Daniels, 
 O. Farkas, J. B. Foresman, J. V. Ortiz, J. Cioslowski, 
 and D. J. Fox, Gaussian, Inc., Wallingford CT, 2013.
 
 ******************************************
 Gaussian 09:  ES64L-G09RevD.01 24-Apr-2013
                 2-Feb-2025 
 ******************************************
 %nprocshared=24
 Will use up to   24 processors via shared memory.
 %mem=40GB
 %rwf=wang5/TAIC0/TAIC0_pos.rwf
 %nosave
 %chk=wang5/TAIC0/TAIC0_pos.chk
 ----------------------------------------------------------------------
 #p CAM-B3LYP/6-31G(d,p) SCRF=(PCM,Solvent=Generic,Read) NoSymm out=wfn
 ----------------------------------------------------------------------
 1/38=1,40=2/1;
 2/12=2,15=1,17=6,18=5,40=1/2;
 3/5=1,6=6,7=101,11=2,16=1,25=1,30=1,70=2203,72=-2,74=-40/1,2,3;
 4//1;
 5/5=2,38=5/2;
 6/7=2,8=2,9=2,10=2,28=1/1;
 99/5=1,6=100,9=1/99;
 Leave Link    1 at Sun Feb  2 05:01:34 2025, MaxMem=  5368709120 cpu:         6.6
 (Enter /home/k0335/k033513/app/g09/l101.exe)
 ---------------
 Title TAIC0_pos
 ---------------
 Symbolic Z-matrix:
 Charge =  1 Multiplicity = 2
 O                    -1.38365   1.89324   0.44615 
 C                    -0.47167   1.06316   0.44318 
 N                     0.8324    1.41655   0.71486 
 C                     1.13383   2.82616   0.96015 
 C                     1.40864   3.57921  -0.34772 
 C                     1.96761   4.98986  -0.14447 
 C                     1.09505   5.97519   0.63097 
 F                     0.92365   5.50822   1.89913 
 F                     1.8161    7.13063   0.7656 
 C                    -0.2619    6.29667  -0.02315 
 F                    -1.01927   5.17688  -0.10582 
 F                    -0.06663   6.74305  -1.28947 
 O                    -0.98476   7.25089   0.71629 
 C                    -1.99243   7.79461  -0.08484 
 F                    -2.88126   8.41838   0.71696 
 F                    -2.64857   6.8545   -0.79005 
 F                    -1.4706    8.71192  -0.92216 
 C                     1.88545   0.52999   0.64617 
 O                     3.05873   0.90909   0.70038 
 N                     1.55692  -0.79984   0.49267 
 C                     2.6432   -1.78003   0.48685 
 C                     3.21446  -1.97562  -0.92342 
 C                     4.55333  -2.7231   -0.96479 
 C                     4.49618  -4.1444   -0.41055 
 F                     3.48018  -4.81592  -1.01415 
 F                     4.18297  -4.07601   0.9107 
 C                     5.8323   -4.90509  -0.61659 
 F                     6.15449  -4.8553   -1.94438 
 F                     6.85442  -4.26513   0.01156 
 O                     5.90337  -6.26797  -0.28137 
 C                     5.49118  -6.48462   1.0351 
 F                     5.96076  -5.54098   1.86967 
 F                     4.14844  -6.51919   1.08999 
 F                     5.96184  -7.68184   1.43942 
 C                     0.27728  -1.23751   0.22245 
 O                     0.02453  -2.42908   0.0362 
 N                    -0.70099  -0.26699   0.16062 
 C                    -2.07281  -0.68078  -0.13538 
 C                    -2.84778  -1.01108   1.14564 
 C                    -4.36203  -1.14979   0.9422 
 C                    -4.76723  -2.30026   0.02168 
 F                    -4.15745  -3.43964   0.44771 
 F                    -4.28643  -2.05293  -1.22977 
 C                    -6.29441  -2.50384  -0.04238 
 F                    -6.771    -2.78564   1.19743 
 F                    -6.59737  -3.5538   -0.84285 
 O                    -6.95541  -1.34574  -0.49851 
 C                    -8.25548  -1.67841  -0.89254 
 F                    -8.87505  -2.45652   0.01282 
 F                    -8.23976  -2.28784  -2.09327 
 F                    -8.96033  -0.53232  -1.01573 
 H                     2.00537   2.89649   1.62211 
 H                     0.29016   3.28178   1.48936 
 H                     2.14098   3.01436  -0.93996 
 H                     0.5011    3.6124   -0.96113 
 H                     2.92992   4.90674   0.37723 
 H                     2.2008    5.4212   -1.1259 
 H                     2.26524  -2.73161   0.8765 
 H                     3.43306  -1.44161   1.16848 
 H                     3.36773  -0.99553  -1.39424 
 H                     2.4787   -2.49873  -1.54793 
 H                     4.87637  -2.75492  -2.01239 
 H                     5.2993   -2.14472  -0.4072 
 H                    -2.57866   0.12389  -0.68185 
 H                    -2.04813  -1.55256  -0.79755 
 H                    -2.68278  -0.21843   1.88664 
 H                    -2.44689  -1.92948   1.59234 
 H                    -4.81234  -1.30654   1.92986 
 H                    -4.753    -0.20369   0.54972 
 
 NAtoms=     69 NQM=       69 NQMF=       0 NMMI=      0 NMMIF=      0
                NMic=       0 NMicF=      0.
                    Isotopes and Nuclear Properties:
 (Nuclear quadrupole moments (NQMom) in fm**2, nuclear magnetic moments (NMagM)
  in nuclear magnetons)

  Atom         1           2           3           4           5           6           7           8           9          10
 IAtWgt=          16          12          14          12          12          12          12          19          19          12
 AtmWgt=  15.9949146  12.0000000  14.0030740  12.0000000  12.0000000  12.0000000  12.0000000  18.9984033  18.9984033  12.0000000
 NucSpn=           0           0           2           0           0           0           0           1           1           0
 AtZEff=   0.0000000   0.0000000   0.0000000   0.0000000   0.0000000   0.0000000   0.0000000   0.0000000   0.0000000   0.0000000
 NQMom=    0.0000000   0.0000000   2.0440000   0.0000000   0.0000000   0.0000000   0.0000000   0.0000000   0.0000000   0.0000000
 NMagM=    0.0000000   0.0000000   0.4037610   0.0000000   0.0000000   0.0000000   0.0000000   2.6288670   2.6288670   0.0000000
 AtZNuc=   8.0000000   6.0000000   7.0000000   6.0000000   6.0000000   6.0000000   6.0000000   9.0000000   9.0000000   6.0000000

  Atom        11          12          13          14          15          16          17          18          19          20
 IAtWgt=          19          19          16          12          19          19          19          12          16          14
 AtmWgt=  18.9984033  18.9984033  15.9949146  12.0000000  18.9984033  18.9984033  18.9984033  12.0000000  15.9949146  14.0030740
 NucSpn=           1           1           0           0           1           1           1           0           0           2
 AtZEff=   0.0000000   0.0000000   0.0000000   0.0000000   0.0000000   0.0000000   0.0000000   0.0000000   0.0000000   0.0000000
 NQMom=    0.0000000   0.0000000   0.0000000   0.0000000   0.0000000   0.0000000   0.0000000   0.0000000   0.0000000   2.0440000
 NMagM=    2.6288670   2.6288670   0.0000000   0.0000000   2.6288670   2.6288670   2.6288670   0.0000000   0.0000000   0.4037610
 AtZNuc=   9.0000000   9.0000000   8.0000000   6.0000000   9.0000000   9.0000000   9.0000000   6.0000000   8.0000000   7.0000000

  Atom        21          22          23          24          25          26          27          28          29          30
 IAtWgt=          12          12          12          12          19          19          12          19          19          16
 AtmWgt=  12.0000000  12.0000000  12.0000000  12.0000000  18.9984033  18.9984033  12.0000000  18.9984033  18.9984033  15.9949146
 NucSpn=           0           0           0           0           1           1           0           1           1           0
 AtZEff=   0.0000000   0.0000000   0.0000000   0.0000000   0.0000000   0.0000000   0.0000000   0.0000000   0.0000000   0.0000000
 NQMom=    0.0000000   0.0000000   0.0000000   0.0000000   0.0000000   0.0000000   0.0000000   0.0000000   0.0000000   0.0000000
 NMagM=    0.0000000   0.0000000   0.0000000   0.0000000   2.6288670   2.6288670   0.0000000   2.6288670   2.6288670   0.0000000
 AtZNuc=   6.0000000   6.0000000   6.0000000   6.0000000   9.0000000   9.0000000   6.0000000   9.0000000   9.0000000   8.0000000

  Atom        31          32          33          34          35          36          37          38          39          40
 IAtWgt=          12          19          19          19          12          16          14          12          12          12
 AtmWgt=  12.0000000  18.9984033  18.9984033  18.9984033  12.0000000  15.9949146  14.0030740  12.0000000  12.0000000  12.0000000
 NucSpn=           0           1           1           1           0           0           2           0           0           0
 AtZEff=   0.0000000   0.0000000   0.0000000   0.0000000   0.0000000   0.0000000   0.0000000   0.0000000   0.0000000   0.0000000
 NQMom=    0.0000000   0.0000000   0.0000000   0.0000000   0.0000000   0.0000000   2.0440000   0.0000000   0.0000000   0.0000000
 NMagM=    0.0000000   2.6288670   2.6288670   2.6288670   0.0000000   0.0000000   0.4037610   0.0000000   0.0000000   0.0000000
 AtZNuc=   6.0000000   9.0000000   9.0000000   9.0000000   6.0000000   8.0000000   7.0000000   6.0000000   6.0000000   6.0000000

  Atom        41          42          43          44          45          46          47          48          49          50
 IAtWgt=          12          19          19          12          19          19          16          12          19          19
 AtmWgt=  12.0000000  18.9984033  18.9984033  12.0000000  18.9984033  18.9984033  15.9949146  12.0000000  18.9984033  18.9984033
 NucSpn=           0           1           1           0           1           1           0           0           1           1
 AtZEff=   0.0000000   0.0000000   0.0000000   0.0000000   0.0000000   0.0000000   0.0000000   0.0000000   0.0000000   0.0000000
 NQMom=    0.0000000   0.0000000   0.0000000   0.0000000   0.0000000   0.0000000   0.0000000   0.0000000   0.0000000   0.0000000
 NMagM=    0.0000000   2.6288670   2.6288670   0.0000000   2.6288670   2.6288670   0.0000000   0.0000000   2.6288670   2.6288670
 AtZNuc=   6.0000000   9.0000000   9.0000000   6.0000000   9.0000000   9.0000000   8.0000000   6.0000000   9.0000000   9.0000000

  Atom        51          52          53          54          55          56          57          58          59          60
 IAtWgt=          19           1           1           1           1           1           1           1           1           1
 AtmWgt=  18.9984033   1.0078250   1.0078250   1.0078250   1.0078250   1.0078250   1.0078250   1.0078250   1.0078250   1.0078250
 NucSpn=           1           1           1           1           1           1           1           1           1           1
 AtZEff=   0.0000000   0.0000000   0.0000000   0.0000000   0.0000000   0.0000000   0.0000000   0.0000000   0.0000000   0.0000000
 NQMom=    0.0000000   0.0000000   0.0000000   0.0000000   0.0000000   0.0000000   0.0000000   0.0000000   0.0000000   0.0000000
 NMagM=    2.6288670   2.7928460   2.7928460   2.7928460   2.7928460   2.7928460   2.7928460   2.7928460   2.7928460   2.7928460
 AtZNuc=   9.0000000   1.0000000   1.0000000   1.0000000   1.0000000   1.0000000   1.0000000   1.0000000   1.0000000   1.0000000

  Atom        61          62          63          64          65          66          67          68          69
 IAtWgt=           1           1           1           1           1           1           1           1           1
 AtmWgt=   1.0078250   1.0078250   1.0078250   1.0078250   1.0078250   1.0078250   1.0078250   1.0078250   1.0078250
 NucSpn=           1           1           1           1           1           1           1           1           1
 AtZEff=   0.0000000   0.0000000   0.0000000   0.0000000   0.0000000   0.0000000   0.0000000   0.0000000   0.0000000
 NQMom=    0.0000000   0.0000000   0.0000000   0.0000000   0.0000000   0.0000000   0.0000000   0.0000000   0.0000000
 NMagM=    2.7928460   2.7928460   2.7928460   2.7928460   2.7928460   2.7928460   2.7928460   2.7928460   2.7928460
 AtZNuc=   1.0000000   1.0000000   1.0000000   1.0000000   1.0000000   1.0000000   1.0000000   1.0000000   1.0000000
 Leave Link  101 at Sun Feb  2 05:01:34 2025, MaxMem=  5368709120 cpu:         1.0
 (Enter /home/k0335/k033513/app/g09/l202.exe)
 Symmetry turned off by external request.
 Stoichiometry    C21H18F21N3O6(1+,2)
 Framework group  C1[X(C21H18F21N3O6)]
 Deg. of freedom   201
 Full point group                 C1      NOp   1
                          Input orientation:                          
 ---------------------------------------------------------------------
 Center     Atomic      Atomic             Coordinates (Angstroms)
 Number     Number       Type             X           Y           Z
 ---------------------------------------------------------------------
      1          8           0       -1.383650    1.893238    0.446146
      2          6           0       -0.471669    1.063162    0.443179
      3          7           0        0.832401    1.416550    0.714859
      4          6           0        1.133829    2.826155    0.960154
      5          6           0        1.408642    3.579207   -0.347719
      6          6           0        1.967607    4.989863   -0.144472
      7          6           0        1.095050    5.975191    0.630972
      8          9           0        0.923653    5.508219    1.899133
      9          9           0        1.816097    7.130629    0.765596
     10          6           0       -0.261896    6.296672   -0.023145
     11          9           0       -1.019273    5.176876   -0.105817
     12          9           0       -0.066630    6.743054   -1.289466
     13          8           0       -0.984756    7.250893    0.716291
     14          6           0       -1.992430    7.794608   -0.084837
     15          9           0       -2.881256    8.418376    0.716957
     16          9           0       -2.648568    6.854500   -0.790047
     17          9           0       -1.470595    8.711918   -0.922157
     18          6           0        1.885447    0.529989    0.646172
     19          8           0        3.058729    0.909088    0.700380
     20          7           0        1.556915   -0.799839    0.492673
     21          6           0        2.643203   -1.780031    0.486852
     22          6           0        3.214455   -1.975621   -0.923420
     23          6           0        4.553327   -2.723103   -0.964794
     24          6           0        4.496180   -4.144401   -0.410553
     25          9           0        3.480182   -4.815923   -1.014145
     26          9           0        4.182972   -4.076014    0.910695
     27          6           0        5.832297   -4.905085   -0.616590
     28          9           0        6.154487   -4.855302   -1.944382
     29          9           0        6.854422   -4.265135    0.011563
     30          8           0        5.903371   -6.267975   -0.281371
     31          6           0        5.491185   -6.484624    1.035098
     32          9           0        5.960760   -5.540977    1.869670
     33          9           0        4.148445   -6.519193    1.089993
     34          9           0        5.961839   -7.681843    1.439424
     35          6           0        0.277282   -1.237511    0.222449
     36          8           0        0.024533   -2.429080    0.036204
     37          7           0       -0.700989   -0.266988    0.160616
     38          6           0       -2.072807   -0.680777   -0.135384
     39          6           0       -2.847784   -1.011084    1.145644
     40          6           0       -4.362032   -1.149793    0.942199
     41          6           0       -4.767234   -2.300259    0.021684
     42          9           0       -4.157452   -3.439640    0.447712
     43          9           0       -4.286430   -2.052927   -1.229773
     44          6           0       -6.294414   -2.503837   -0.042376
     45          9           0       -6.770996   -2.785635    1.197428
     46          9           0       -6.597372   -3.553799   -0.842854
     47          8           0       -6.955408   -1.345737   -0.498510
     48          6           0       -8.255476   -1.678408   -0.892536
     49          9           0       -8.875054   -2.456522    0.012817
     50          9           0       -8.239755   -2.287842   -2.093265
     51          9           0       -8.960326   -0.532319   -1.015728
     52          1           0        2.005366    2.896488    1.622110
     53          1           0        0.290161    3.281778    1.489364
     54          1           0        2.140981    3.014360   -0.939962
     55          1           0        0.501102    3.612396   -0.961127
     56          1           0        2.929922    4.906739    0.377226
     57          1           0        2.200800    5.421197   -1.125895
     58          1           0        2.265243   -2.731613    0.876496
     59          1           0        3.433062   -1.441606    1.168484
     60          1           0        3.367732   -0.995534   -1.394238
     61          1           0        2.478702   -2.498732   -1.547930
     62          1           0        4.876373   -2.754915   -2.012393
     63          1           0        5.299302   -2.144716   -0.407195
     64          1           0       -2.578660    0.123889   -0.681845
     65          1           0       -2.048127   -1.552558   -0.797547
     66          1           0       -2.682778   -0.218434    1.886636
     67          1           0       -2.446893   -1.929478    1.592340
     68          1           0       -4.812343   -1.306536    1.929863
     69          1           0       -4.753004   -0.203689    0.549723
 ---------------------------------------------------------------------
 Rotational constants (GHZ):      0.0369723      0.0240831      0.0151804
 Leave Link  202 at Sun Feb  2 05:01:34 2025, MaxMem=  5368709120 cpu:         0.1
 (Enter /home/k0335/k033513/app/g09/l301.exe)
 Standard basis: 6-31G(d,p) (6D, 7F)
 Ernie: Thresh=  0.10000D-02 Tol=  0.10000D-05 Strict=F.
   855 basis functions,  1554 primitive gaussians,   855 cartesian basis functions
   201 alpha electrons      200 beta electrons
       nuclear repulsion energy      7528.9681349249 Hartrees.
 IExCor=20419 DFT=T Ex+Corr=CAM-B3LYP ExCW=0 ScaHFX=  1.000000
 ScaDFX=  1.000000  1.000000  1.000000  0.810000 ScalE2=  1.000000  1.000000
 IRadAn=      0 IRanWt=     -1 IRanGd=            0 ICorTp=0 IEmpDi=  4
  HFx wShort=  0.000000 wLong=  0.330000 cFull=  0.190000 cShort=  0.000000 cLong=  0.460000
  DFx wShort=  0.000000 wLong=  0.330000 cFull=  0.190000 cShort=  0.000000 cLong=  0.460000
 NAtoms=   69 NActive=   69 NUniq=   69 SFac= 1.00D+00 NAtFMM=   60 NAOKFM=T Big=T
 Integral buffers will be    131072 words long.
 Raffenetti 2 integral format.
 Two-electron integral symmetry is turned off.
 Using the following non-standard input for PCM:
 eps=4.9
 --- end of non-standard input.
 ------------------------------------------------------------------------------
 Polarizable Continuum Model (PCM)
 =================================
 Model                : PCM (using non-symmetric T matrix).
 Atomic radii         : UFF (Universal Force Field).
 Polarization charges : Total charges.
 Charge compensation  : None.
 Solution method      : On-the-fly selection.
 Cavity type          : Scaled VdW (van der Waals Surface) (Alpha=1.100).
 Cavity algorithm     : GePol (No added spheres)
                        Default sphere list used, NSphG=   69.
                        Lebedev-Laikov grids with approx.  5.0 points / Ang**2.
                        Smoothing algorithm: Karplus/York (Gamma=1.0000).
                        Polarization charges: spherical gaussians, with
                                              point-specific exponents (IZeta= 3).
                        Self-potential: point-specific (ISelfS= 7).
                        Self-field    : sphere-specific E.n sum rule (ISelfD= 2).
 Solvent              : Generic,
                        Eps                           =   4.900000
                        Eps(infinity)                 =   0.000000
                        RSolv                         =   0.000000 Ang.
                        Molar volume                  =   0.000000 cm**3/mol
                        Thermal expansion coefficient =   0.000000 K**-1
                        Absolute temperature          = 298.150000 K
                        Numeral density               =   0.000000 Ang**-3
                        Hydrogen bond acidity         =   0.000000
                        Hydrogen bond basicity        =   0.000000
                        Surface tension at interface  =   0.000000 (cal/mol)*Ang**-2
                        Carbon aromaticity            =   0.000000
                        Electronegative halogenicity  =   0.000000
 ------------------------------------------------------------------------------
 GePol: Number of generator spheres                  =      69
 GePol: Total number of spheres                      =      69
 GePol: Number of exposed spheres                    =      69 (100.00%)
 GePol: Number of points                             =    5406
 GePol: Average weight of points                     =       0.13
 GePol: Minimum weight of points                     =   0.20D-10
 GePol: Maximum weight of points                     =    0.20577
 GePol: Number of points with low weight             =     273
 GePol: Fraction of low-weight points (<1% of avg)   =       5.05%
 GePol: Cavity surface area                          =    679.814 Ang**2
 GePol: Cavity volume                                =    771.396 Ang**3
 Leave Link  301 at Sun Feb  2 05:01:34 2025, MaxMem=  5368709120 cpu:         0.8
 (Enter /home/k0335/k033513/app/g09/l302.exe)
 NPDir=0 NMtPBC=     1 NCelOv=     1 NCel=       1 NClECP=     1 NCelD=      1
         NCelK=      1 NCelE2=     1 NClLst=     1 CellRange=     0.0.
 One-electron integrals computed using PRISM.
 NBasis=   855 RedAO= T EigKep=  1.40D-03  NBF=   855
 NBsUse=   855 1.00D-06 EigRej= -1.00D+00 NBFU=   855
 Precomputing XC quadrature grid using
 IXCGrd= 4 IRadAn=           0 IRanWt=          -1 IRanGd=           0 AccXCQ= 0.00D+00.
 Generated NRdTot=       0 NPtTot=           0 NUsed=           0 NTot=          32
 NSgBfM=   746   746   746   746   746 MxSgAt=    69 MxSgA2=    69.
 Leave Link  302 at Sun Feb  2 05:01:35 2025, MaxMem=  5368709120 cpu:        26.0
 (Enter /home/k0335/k033513/app/g09/l303.exe)
 DipDrv:  MaxL=1.
 Leave Link  303 at Sun Feb  2 05:01:36 2025, MaxMem=  5368709120 cpu:         1.3
 (Enter /home/k0335/k033513/app/g09/l401.exe)
 ExpMin= 1.61D-01 ExpMax= 7.00D+03 ExpMxC= 1.05D+03 IAcc=1 IRadAn=         1 AccDes= 0.00D+00
 Harris functional with IExCor=20419 and IRadAn=       1 diagonalized for initial guess.
 HarFok:  IExCor=20419 AccDes= 0.00D+00 IRadAn=         1 IDoV= 1 UseB2=F ITyADJ=14
 ICtDFT=  3500011 ScaDFX=  1.000000  1.000000  1.000000  1.000000
 FoFCou: FMM=F IPFlag=           0 FMFlag=      100000 FMFlg1=        2001
         NFxFlg=           0 DoJE=T BraDBF=F KetDBF=T FulRan=T
         wScrn=  0.000000 ICntrl=     500 IOpCl=  0 I1Cent=   200000004 NGrid=           0
         NMat0=    1 NMatS0=      1 NMatT0=    0 NMatD0=    1 NMtDS0=    0 NMtDT0=    0
 Symmetry not used in FoFCou.
 Harris En= -3413.41025404344    
 JPrj=0 DoOrth=F DoCkMO=F.
 Initial guess <Sx>= 0.0000 <Sy>= 0.0000 <Sz>= 0.5000 <S**2>= 0.7500 S= 0.5000
 Leave Link  401 at Sun Feb  2 05:01:37 2025, MaxMem=  5368709120 cpu:        31.1
 (Enter /home/k0335/k033513/app/g09/l502.exe)
 UHF open shell SCF:
 Using DIIS extrapolation, IDIIS=  1040.
 Two-electron integral symmetry not used.
 IVT=     2237413 IEndB=     2237413 NGot=  5368709120 MDV=  5367220228
 LenX=  5367220228 LenY=  5366488348
 Requested convergence on RMS density matrix=1.00D-08 within 128 cycles.
 Requested convergence on MAX density matrix=1.00D-06.
 Requested convergence on             energy=1.00D-06.
 No special actions if energy rises.
 Fock matrices will be formed incrementally for  20 cycles.

 Cycle   1  Pass 1  IDiag  1:
 FoFJK:  IHMeth= 1 ICntrl=       0 DoSepK=T KAlg= 0 I1Cent=   0 FoldK=F
 IRaf=         1 NMat=   1 IRICut=       1 DoRegI=T DoRafI=F ISym2E= 0.
 FoFCou: FMM=T IPFlag=           0 FMFlag=      100000 FMFlg1=        2001
         NFxFlg=           0 DoJE=T BraDBF=F KetDBF=F FulRan=T
         wScrn=  0.000000 ICntrl=     500 IOpCl=  0 I1Cent=           0 NGrid=           0
         NMat0=    1 NMatS0=      1 NMatT0=    0 NMatD0=    1 NMtDS0=    0 NMtDT0=    0
 Symmetry not used in FoFCou.
 FMM levels:  10  Number of levels for PrismC:   9
 Inv3:  Mode=1 IEnd=    87674508.
 Iteration    1 A*A^-1 deviation from unit magnitude is 8.88D-15 for   5393.
 Iteration    1 A*A^-1 deviation from orthogonality  is 6.36D-15 for   5393    594.
 Iteration    1 A^-1*A deviation from unit magnitude is 8.66D-15 for   5393.
 Iteration    1 A^-1*A deviation from orthogonality  is 2.74D-13 for   4915   4914.
 E= -3520.66271244078    
 DIIS: error= 5.48D-02 at cycle   1 NSaved=   1.
 NSaved= 1 IEnMin= 1 EnMin= -3520.66271244078     IErMin= 1 ErrMin= 5.48D-02
 ErrMax= 5.48D-02  0.00D+00 EMaxC= 1.00D-01 BMatC= 1.28D+01 BMatP= 1.28D+01
 IDIUse=3 WtCom= 4.52D-01 WtEn= 5.48D-01
 Coeff-Com:  0.100D+01
 Coeff-En:   0.100D+01
 Coeff:      0.100D+01
 Gap=     0.572 Goal=   None    Shift=    0.000
 Gap=    -0.018 Goal=   None    Shift=    0.000
 GapD=   -0.018 DampG=0.250 DampE=0.500 DampFc=0.2500 IDamp=-1.
 Damping current iteration by 2.50D-01
 RMSDP=2.74D-03 MaxDP=1.71D-01              OVMax= 6.04D-01

 Cycle   2  Pass 1  IDiag  1:
 RMSU=  6.85D-04    CP:  9.99D-01
 E= -3521.13497348160     Delta-E=       -0.472261040819 Rises=F Damp=T
 DIIS: error= 4.24D-02 at cycle   2 NSaved=   2.
 NSaved= 2 IEnMin= 2 EnMin= -3521.13497348160     IErMin= 2 ErrMin= 4.24D-02
 ErrMax= 4.24D-02  0.00D+00 EMaxC= 1.00D-01 BMatC= 5.16D+00 BMatP= 1.28D+01
 IDIUse=3 WtCom= 5.76D-01 WtEn= 4.24D-01
 Coeff-Com: -0.141D+01 0.241D+01
 Coeff-En:   0.000D+00 0.100D+01
 Coeff:     -0.811D+00 0.181D+01
 Gap=     0.462 Goal=   None    Shift=    0.000
 Gap=     0.052 Goal=   None    Shift=    0.000
 RMSDP=1.45D-03 MaxDP=8.00D-02 DE=-4.72D-01 OVMax= 5.21D-01

 Cycle   3  Pass 1  IDiag  1:
 RMSU=  7.99D-04    CP:  9.96D-01  2.76D+00
 E= -3522.00551574249     Delta-E=       -0.870542260898 Rises=F Damp=F
 DIIS: error= 6.78D-03 at cycle   3 NSaved=   3.
 NSaved= 3 IEnMin= 3 EnMin= -3522.00551574249     IErMin= 3 ErrMin= 6.78D-03
 ErrMax= 6.78D-03  0.00D+00 EMaxC= 1.00D-01 BMatC= 3.82D-01 BMatP= 5.16D+00
 IDIUse=3 WtCom= 9.32D-01 WtEn= 6.78D-02
 Coeff-Com: -0.332D+00 0.621D+00 0.710D+00
 Coeff-En:   0.000D+00 0.000D+00 0.100D+01
 Coeff:     -0.309D+00 0.579D+00 0.730D+00
 Gap=     0.382 Goal=   None    Shift=    0.000
 Gap=     0.083 Goal=   None    Shift=    0.000
 RMSDP=5.45D-04 MaxDP=7.56D-02 DE=-8.71D-01 OVMax= 1.90D-01

 Cycle   4  Pass 1  IDiag  1:
 RMSU=  4.90D-04    CP:  9.96D-01  2.76D+00  7.01D-01
 E= -3522.03481904425     Delta-E=       -0.029303301751 Rises=F Damp=F
 DIIS: error= 7.40D-03 at cycle   4 NSaved=   4.
 NSaved= 4 IEnMin= 4 EnMin= -3522.03481904425     IErMin= 3 ErrMin= 6.78D-03
 ErrMax= 7.40D-03  0.00D+00 EMaxC= 1.00D-01 BMatC= 2.57D-01 BMatP= 3.82D-01
 IDIUse=3 WtCom= 9.26D-01 WtEn= 7.40D-02
 Coeff-Com:  0.299D-01-0.141D-01 0.454D+00 0.530D+00
 Coeff-En:   0.000D+00 0.000D+00 0.386D+00 0.614D+00
 Coeff:      0.277D-01-0.130D-01 0.449D+00 0.536D+00
 Gap=     0.382 Goal=   None    Shift=    0.000
 Gap=     0.114 Goal=   None    Shift=    0.000
 RMSDP=2.90D-04 MaxDP=6.00D-02 DE=-2.93D-02 OVMax= 1.00D-01

 Cycle   5  Pass 1  IDiag  1:
 RMSU=  1.66D-04    CP:  9.95D-01  2.73D+00  9.06D-01  6.52D-01
 E= -3522.08304193614     Delta-E=       -0.048222891890 Rises=F Damp=F
 DIIS: error= 1.32D-03 at cycle   5 NSaved=   5.
 NSaved= 5 IEnMin= 5 EnMin= -3522.08304193614     IErMin= 5 ErrMin= 1.32D-03
 ErrMax= 1.32D-03  0.00D+00 EMaxC= 1.00D-01 BMatC= 1.60D-02 BMatP= 2.57D-01
 IDIUse=3 WtCom= 9.87D-01 WtEn= 1.32D-02
 Coeff-Com:  0.378D-01-0.506D-01 0.169D+00 0.281D+00 0.562D+00
 Coeff-En:   0.000D+00 0.000D+00 0.000D+00 0.000D+00 0.100D+01
 Coeff:      0.373D-01-0.499D-01 0.167D+00 0.278D+00 0.568D+00
 Gap=     0.363 Goal=   None    Shift=    0.000
 Gap=     0.109 Goal=   None    Shift=    0.000
 RMSDP=7.39D-05 MaxDP=9.94D-03 DE=-4.82D-02 OVMax= 3.28D-02

 Cycle   6  Pass 1  IDiag  1:
 RMSU=  6.60D-05    CP:  9.95D-01  2.74D+00  9.08D-01  7.15D-01  9.50D-01
 E= -3522.08705490496     Delta-E=       -0.004012968830 Rises=F Damp=F
 DIIS: error= 3.98D-04 at cycle   6 NSaved=   6.
 NSaved= 6 IEnMin= 6 EnMin= -3522.08705490496     IErMin= 6 ErrMin= 3.98D-04
 ErrMax= 3.98D-04  0.00D+00 EMaxC= 1.00D-01 BMatC= 9.36D-04 BMatP= 1.60D-02
 IDIUse=3 WtCom= 9.96D-01 WtEn= 3.98D-03
 Coeff-Com: -0.725D-02 0.811D-02-0.253D-01-0.899D-02 0.102D+00 0.932D+00
 Coeff-En:   0.000D+00 0.000D+00 0.000D+00 0.000D+00 0.000D+00 0.100D+01
 Coeff:     -0.722D-02 0.808D-02-0.252D-01-0.896D-02 0.101D+00 0.932D+00
 Gap=     0.363 Goal=   None    Shift=    0.000
 Gap=     0.114 Goal=   None    Shift=    0.000
 RMSDP=5.38D-05 MaxDP=9.33D-03 DE=-4.01D-03 OVMax= 3.70D-02

 Cycle   7  Pass 1  IDiag  1:
 RMSU=  2.75D-05    CP:  9.95D-01  2.75D+00  9.17D-01  7.39D-01  1.16D+00
                    CP:  1.39D+00
 E= -3522.08809910027     Delta-E=       -0.001044195302 Rises=F Damp=F
 DIIS: error= 2.96D-04 at cycle   7 NSaved=   7.
 NSaved= 7 IEnMin= 7 EnMin= -3522.08809910027     IErMin= 7 ErrMin= 2.96D-04
 ErrMax= 2.96D-04  0.00D+00 EMaxC= 1.00D-01 BMatC= 6.00D-04 BMatP= 9.36D-04
 IDIUse=3 WtCom= 9.97D-01 WtEn= 2.96D-03
 Coeff-Com: -0.184D-01 0.241D-01-0.612D-01-0.733D-01-0.889D-01 0.535D+00
 Coeff-Com:  0.683D+00
 Coeff-En:   0.000D+00 0.000D+00 0.000D+00 0.000D+00 0.000D+00 0.000D+00
 Coeff-En:   0.100D+01
 Coeff:     -0.183D-01 0.241D-01-0.610D-01-0.730D-01-0.887D-01 0.533D+00
 Coeff:      0.684D+00
 Gap=     0.363 Goal=   None    Shift=    0.000
 Gap=     0.118 Goal=   None    Shift=    0.000
 RMSDP=3.64D-05 MaxDP=7.19D-03 DE=-1.04D-03 OVMax= 2.14D-02

 Cycle   8  Pass 1  IDiag  1:
 RMSU=  1.89D-05    CP:  9.95D-01  2.75D+00  9.21D-01  7.49D-01  1.28D+00
                    CP:  1.74D+00  1.14D+00
 E= -3522.08857786126     Delta-E=       -0.000478760989 Rises=F Damp=F
 DIIS: error= 1.84D-04 at cycle   8 NSaved=   8.
 NSaved= 8 IEnMin= 8 EnMin= -3522.08857786126     IErMin= 8 ErrMin= 1.84D-04
 ErrMax= 1.84D-04  0.00D+00 EMaxC= 1.00D-01 BMatC= 2.08D-04 BMatP= 6.00D-04
 IDIUse=3 WtCom= 9.98D-01 WtEn= 1.84D-03
 Coeff-Com: -0.928D-02 0.129D-01-0.233D-01-0.259D-01-0.789D-01-0.351D-01
 Coeff-Com:  0.367D+00 0.792D+00
 Coeff-En:   0.000D+00 0.000D+00 0.000D+00 0.000D+00 0.000D+00 0.000D+00
 Coeff-En:   0.000D+00 0.100D+01
 Coeff:     -0.927D-02 0.128D-01-0.233D-01-0.258D-01-0.788D-01-0.350D-01
 Coeff:      0.367D+00 0.793D+00
 Gap=     0.362 Goal=   None    Shift=    0.000
 Gap=     0.119 Goal=   None    Shift=    0.000
 RMSDP=2.65D-05 MaxDP=5.95D-03 DE=-4.79D-04 OVMax= 1.44D-02

 Cycle   9  Pass 1  IDiag  1:
 RMSU=  1.05D-05    CP:  9.95D-01  2.75D+00  9.22D-01  7.51D-01  1.36D+00
                    CP:  1.94D+00  1.65D+00  1.47D+00
 E= -3522.08881159984     Delta-E=       -0.000233738587 Rises=F Damp=F
 DIIS: error= 1.19D-04 at cycle   9 NSaved=   9.
 NSaved= 9 IEnMin= 9 EnMin= -3522.08881159984     IErMin= 9 ErrMin= 1.19D-04
 ErrMax= 1.19D-04  0.00D+00 EMaxC= 1.00D-01 BMatC= 8.53D-05 BMatP= 2.08D-04
 IDIUse=3 WtCom= 9.99D-01 WtEn= 1.19D-03
 Coeff-Com: -0.216D-03 0.612D-03 0.863D-02 0.185D-01-0.161D-01-0.212D+00
 Coeff-Com: -0.184D-01 0.387D+00 0.833D+00
 Coeff-En:   0.000D+00 0.000D+00 0.000D+00 0.000D+00 0.000D+00 0.000D+00
 Coeff-En:   0.000D+00 0.000D+00 0.100D+01
 Coeff:     -0.216D-03 0.612D-03 0.862D-02 0.185D-01-0.161D-01-0.212D+00
 Coeff:     -0.184D-01 0.386D+00 0.833D+00
 Gap=     0.362 Goal=   None    Shift=    0.000
 Gap=     0.119 Goal=   None    Shift=    0.000
 RMSDP=2.26D-05 MaxDP=5.39D-03 DE=-2.34D-04 OVMax= 1.65D-02

 Cycle  10  Pass 1  IDiag  1:
 RMSU=  7.07D-06    CP:  9.95D-01  2.75D+00  9.24D-01  7.49D-01  1.40D+00
                    CP:  2.07D+00  2.01D+00  2.18D+00  1.74D+00
 E= -3522.08896058561     Delta-E=       -0.000148985771 Rises=F Damp=F
 DIIS: error= 9.95D-05 at cycle  10 NSaved=  10.
 NSaved=10 IEnMin=10 EnMin= -3522.08896058561     IErMin=10 ErrMin= 9.95D-05
 ErrMax= 9.95D-05  0.00D+00 EMaxC= 1.00D-01 BMatC= 4.82D-05 BMatP= 8.53D-05
 IDIUse=1 WtCom= 1.00D+00 WtEn= 0.00D+00
 Coeff-Com: -0.587D-03 0.768D-03 0.246D-02 0.106D-01-0.189D-02-0.267D-01
 Coeff-Com: -0.171D-01-0.109D+00 0.137D+00 0.100D+01
 Coeff:     -0.587D-03 0.768D-03 0.246D-02 0.106D-01-0.189D-02-0.267D-01
 Coeff:     -0.171D-01-0.109D+00 0.137D+00 0.100D+01
 Gap=     0.362 Goal=   None    Shift=    0.000
 Gap=     0.120 Goal=   None    Shift=    0.000
 RMSDP=1.95D-05 MaxDP=4.04D-03 DE=-1.49D-04 OVMax= 1.71D-02

 Cycle  11  Pass 1  IDiag  1:
 RMSU=  3.32D-06    CP:  9.95D-01  2.74D+00  9.26D-01  7.45D-01  1.41D+00
                    CP:  2.12D+00  2.26D+00  2.77D+00  2.76D+00  2.06D+00
 E= -3522.08907570959     Delta-E=       -0.000115123976 Rises=F Damp=F
 DIIS: error= 9.52D-05 at cycle  11 NSaved=  11.
 NSaved=11 IEnMin=11 EnMin= -3522.08907570959     IErMin=11 ErrMin= 9.52D-05
 ErrMax= 9.52D-05  0.00D+00 EMaxC= 1.00D-01 BMatC= 4.14D-05 BMatP= 4.82D-05
 IDIUse=1 WtCom= 1.00D+00 WtEn= 0.00D+00
 Coeff-Com: -0.281D-02 0.366D-02-0.763D-02-0.368D-02-0.574D-02 0.121D+00
 Coeff-Com:  0.673D-01-0.294D+00-0.420D+00 0.352D+00 0.119D+01
 Coeff:     -0.281D-02 0.366D-02-0.763D-02-0.368D-02-0.574D-02 0.121D+00
 Coeff:      0.673D-01-0.294D+00-0.420D+00 0.352D+00 0.119D+01
 Gap=     0.362 Goal=   None    Shift=    0.000
 Gap=     0.120 Goal=   None    Shift=    0.000
 RMSDP=2.77D-05 MaxDP=5.37D-03 DE=-1.15D-04 OVMax= 2.50D-02

 Cycle  12  Pass 1  IDiag  1:
 RMSU=  1.79D-05    CP:  9.95D-01  2.74D+00  9.27D-01  7.36D-01  1.43D+00
                    CP:  2.17D+00  2.58D+00  3.00D+00  3.00D+00  3.00D+00
                    CP:  2.41D+00
 E= -3522.08922984856     Delta-E=       -0.000154138970 Rises=F Damp=F
 DIIS: error= 8.99D-05 at cycle  12 NSaved=  12.
 NSaved=12 IEnMin=12 EnMin= -3522.08922984856     IErMin=12 ErrMin= 8.99D-05
 ErrMax= 8.99D-05  0.00D+00 EMaxC= 1.00D-01 BMatC= 3.49D-05 BMatP= 4.14D-05
 IDIUse=1 WtCom= 1.00D+00 WtEn= 0.00D+00
 Coeff-Com: -0.321D-02 0.433D-02-0.784D-02-0.541D-02-0.139D-01 0.751D-01
 Coeff-Com:  0.892D-01-0.853D-01-0.250D+00-0.548D+00 0.324D+00 0.142D+01
 Coeff:     -0.321D-02 0.433D-02-0.784D-02-0.541D-02-0.139D-01 0.751D-01
 Coeff:      0.892D-01-0.853D-01-0.250D+00-0.548D+00 0.324D+00 0.142D+01
 Gap=     0.363 Goal=   None    Shift=    0.000
 Gap=     0.120 Goal=   None    Shift=    0.000
 RMSDP=3.97D-05 MaxDP=7.15D-03 DE=-1.54D-04 OVMax= 3.62D-02

 Cycle  13  Pass 1  IDiag  1:
 RMSU=  1.06D-05    CP:  9.95D-01  2.74D+00  9.29D-01  7.23D-01  1.46D+00
                    CP:  2.23D+00  3.00D+00  3.00D+00  3.00D+00  3.00D+00
                    CP:  3.00D+00  2.94D+00
 E= -3522.08943416820     Delta-E=       -0.000204319644 Rises=F Damp=F
 DIIS: error= 8.55D-05 at cycle  13 NSaved=  13.
 NSaved=13 IEnMin=13 EnMin= -3522.08943416820     IErMin=13 ErrMin= 8.55D-05
 ErrMax= 8.55D-05  0.00D+00 EMaxC= 1.00D-01 BMatC= 2.42D-05 BMatP= 3.49D-05
 IDIUse=1 WtCom= 1.00D+00 WtEn= 0.00D+00
 Coeff-Com: -0.859D-03 0.126D-02 0.432D-03 0.248D-02-0.126D-01-0.684D-01
 Coeff-Com:  0.172D-01 0.249D+00 0.295D+00-0.686D+00-0.110D+01 0.168D+00
 Coeff-Com:  0.213D+01
 Coeff:     -0.859D-03 0.126D-02 0.432D-03 0.248D-02-0.126D-01-0.684D-01
 Coeff:      0.172D-01 0.249D+00 0.295D+00-0.686D+00-0.110D+01 0.168D+00
 Coeff:      0.213D+01
 Gap=     0.363 Goal=   None    Shift=    0.000
 Gap=     0.121 Goal=   None    Shift=    0.000
 RMSDP=8.25D-05 MaxDP=1.38D-02 DE=-2.04D-04 OVMax= 7.66D-02

 Cycle  14  Pass 1  IDiag  1:
 RMSU=  7.41D-05    CP:  9.95D-01  2.73D+00  9.26D-01  6.93D-01  1.51D+00
                    CP:  2.36D+00  3.00D+00  3.00D+00  3.00D+00  3.00D+00
                    CP:  3.00D+00  3.00D+00  3.00D+00
 E= -3522.08978464297     Delta-E=       -0.000350474767 Rises=F Damp=F
 DIIS: error= 7.87D-05 at cycle  14 NSaved=  14.
 NSaved=14 IEnMin=14 EnMin= -3522.08978464297     IErMin=14 ErrMin= 7.87D-05
 ErrMax= 7.87D-05  0.00D+00 EMaxC= 1.00D-01 BMatC= 1.48D-05 BMatP= 2.42D-05
 IDIUse=1 WtCom= 1.00D+00 WtEn= 0.00D+00
 Coeff-Com: -0.105D-03 0.185D-03 0.112D-02 0.179D-02-0.184D-02-0.251D-01
 Coeff-Com: -0.898D-02 0.124D+00 0.162D+00-0.134D+00-0.368D+00-0.597D+00
 Coeff-Com:  0.128D+01 0.571D+00
 Coeff:     -0.105D-03 0.185D-03 0.112D-02 0.179D-02-0.184D-02-0.251D-01
 Coeff:     -0.898D-02 0.124D+00 0.162D+00-0.134D+00-0.368D+00-0.597D+00
 Coeff:      0.128D+01 0.571D+00
 Gap=     0.363 Goal=   None    Shift=    0.000
 Gap=     0.122 Goal=   None    Shift=    0.000
 RMSDP=7.23D-06 MaxDP=1.11D-03 DE=-3.50D-04 OVMax= 5.93D-03

 Cycle  15  Pass 1  IDiag  1:
 RMSU=  3.95D-06    CP:  9.95D-01  2.73D+00  9.26D-01  6.89D-01  1.51D+00
                    CP:  2.36D+00  3.00D+00  3.00D+00  3.00D+00  3.00D+00
                    CP:  3.00D+00  3.00D+00  3.00D+00  1.08D+00
 E= -3522.08981244994     Delta-E=       -0.000027806969 Rises=F Damp=F
 DIIS: error= 6.99D-05 at cycle  15 NSaved=  15.
 NSaved=15 IEnMin=15 EnMin= -3522.08981244994     IErMin=15 ErrMin= 6.99D-05
 ErrMax= 6.99D-05  0.00D+00 EMaxC= 1.00D-01 BMatC= 1.17D-05 BMatP= 1.48D-05
 IDIUse=1 WtCom= 1.00D+00 WtEn= 0.00D+00
 Coeff-Com:  0.506D-03-0.704D-03 0.133D-02 0.101D-02 0.700D-02 0.159D-01
 Coeff-Com: -0.270D-01-0.348D-01-0.894D-02 0.347D+00 0.345D+00-0.124D+01
 Coeff-Com: -0.207D-01 0.308D+00 0.130D+01
 Coeff:      0.506D-03-0.704D-03 0.133D-02 0.101D-02 0.700D-02 0.159D-01
 Coeff:     -0.270D-01-0.348D-01-0.894D-02 0.347D+00 0.345D+00-0.124D+01
 Coeff:     -0.207D-01 0.308D+00 0.130D+01
 Gap=     0.363 Goal=   None    Shift=    0.000
 Gap=     0.122 Goal=   None    Shift=    0.000
 RMSDP=6.00D-05 MaxDP=8.66D-03 DE=-2.78D-05 OVMax= 5.48D-02

 Cycle  16  Pass 1  IDiag  1:
 RMSU=  1.50D-05    CP:  9.95D-01  2.73D+00  9.21D-01  6.64D-01  1.54D+00
                    CP:  2.44D+00  3.00D+00  3.00D+00  3.00D+00  3.00D+00
                    CP:  3.00D+00  3.00D+00  3.00D+00  1.81D+00  3.00D+00
 E= -3522.09000029052     Delta-E=       -0.000187840584 Rises=F Damp=F
 DIIS: error= 7.26D-05 at cycle  16 NSaved=  16.
 NSaved=16 IEnMin=16 EnMin= -3522.09000029052     IErMin=15 ErrMin= 6.99D-05
 ErrMax= 7.26D-05  0.00D+00 EMaxC= 1.00D-01 BMatC= 1.09D-05 BMatP= 1.17D-05
 IDIUse=1 WtCom= 1.00D+00 WtEn= 0.00D+00
 Coeff-Com: -0.112D-02 0.145D-02-0.425D-02-0.421D-02 0.405D-02 0.854D-01
 Coeff-Com:  0.348D-01-0.252D+00-0.286D+00 0.298D+00 0.113D+01-0.420D-01
 Coeff-Com: -0.157D+01-0.129D+01 0.136D+01 0.153D+01
 Coeff:     -0.112D-02 0.145D-02-0.425D-02-0.421D-02 0.405D-02 0.854D-01
 Coeff:      0.348D-01-0.252D+00-0.286D+00 0.298D+00 0.113D+01-0.420D-01
 Coeff:     -0.157D+01-0.129D+01 0.136D+01 0.153D+01
 Gap=     0.364 Goal=   None    Shift=    0.000
 Gap=     0.121 Goal=   None    Shift=    0.000
 RMSDP=4.77D-05 MaxDP=6.35D-03 DE=-1.88D-04 OVMax= 3.98D-02

 Cycle  17  Pass 1  IDiag  1:
 RMSU=  1.37D-05    CP:  9.95D-01  2.72D+00  9.15D-01  6.40D-01  1.57D+00
                    CP:  2.48D+00  3.00D+00  3.00D+00  3.00D+00  3.00D+00
                    CP:  3.00D+00  3.00D+00  3.00D+00  2.34D+00  3.00D+00
                    CP:  2.27D+00
 E= -3522.09011932215     Delta-E=       -0.000119031629 Rises=F Damp=F
 DIIS: error= 4.76D-05 at cycle  17 NSaved=  17.
 NSaved=17 IEnMin=17 EnMin= -3522.09011932215     IErMin=17 ErrMin= 4.76D-05
 ErrMax= 4.76D-05  0.00D+00 EMaxC= 1.00D-01 BMatC= 1.07D-05 BMatP= 1.09D-05
 IDIUse=1 WtCom= 1.00D+00 WtEn= 0.00D+00
 Coeff-Com: -0.128D-02 0.167D-02-0.384D-02-0.283D-02-0.213D-02 0.459D-01
 Coeff-Com:  0.478D-01-0.180D+00-0.148D+00 0.305D-01 0.616D+00 0.212D+00
 Coeff-Com: -0.911D+00-0.131D+01 0.710D+00 0.131D+01 0.588D+00
 Coeff:     -0.128D-02 0.167D-02-0.384D-02-0.283D-02-0.213D-02 0.459D-01
 Coeff:      0.478D-01-0.180D+00-0.148D+00 0.305D-01 0.616D+00 0.212D+00
 Coeff:     -0.911D+00-0.131D+01 0.710D+00 0.131D+01 0.588D+00
 Gap=     0.364 Goal=   None    Shift=    0.000
 Gap=     0.123 Goal=   None    Shift=    0.000
 RMSDP=4.55D-05 MaxDP=6.18D-03 DE=-1.19D-04 OVMax= 3.98D-02

 Cycle  18  Pass 1  IDiag  1:
 RMSU=  9.81D-06    CP:  9.95D-01  2.72D+00  9.05D-01  6.22D-01  1.58D+00
                    CP:  2.53D+00  3.00D+00  3.00D+00  3.00D+00  3.00D+00
                    CP:  3.00D+00  3.00D+00  3.00D+00  2.85D+00  3.00D+00
                    CP:  3.00D+00  1.55D+00
 E= -3522.09019280217     Delta-E=       -0.000073480021 Rises=F Damp=F
 DIIS: error= 5.29D-05 at cycle  18 NSaved=  18.
 NSaved=18 IEnMin=18 EnMin= -3522.09019280217     IErMin=17 ErrMin= 4.76D-05
 ErrMax= 5.29D-05  0.00D+00 EMaxC= 1.00D-01 BMatC= 1.37D-05 BMatP= 1.07D-05
 IDIUse=1 WtCom= 1.00D+00 WtEn= 0.00D+00
 Coeff-Com: -0.647D-03 0.856D-03-0.196D-02-0.206D-02-0.222D-02 0.115D-01
 Coeff-Com:  0.399D-01-0.733D-01 0.140D-01-0.213D+00 0.191D+00 0.369D+00
 Coeff-Com: -0.240D-01-0.952D+00 0.423D+00-0.497D-01 0.312D+00 0.958D+00
 Coeff:     -0.647D-03 0.856D-03-0.196D-02-0.206D-02-0.222D-02 0.115D-01
 Coeff:      0.399D-01-0.733D-01 0.140D-01-0.213D+00 0.191D+00 0.369D+00
 Coeff:     -0.240D-01-0.952D+00 0.423D+00-0.497D-01 0.312D+00 0.958D+00
 Gap=     0.363 Goal=   None    Shift=    0.000
 Gap=     0.121 Goal=   None    Shift=    0.000
 RMSDP=1.01D-05 MaxDP=1.38D-03 DE=-7.35D-05 OVMax= 6.32D-03

 Cycle  19  Pass 1  IDiag  1:
 RMSU=  4.33D-06    CP:  9.95D-01  2.72D+00  9.06D-01  6.18D-01  1.58D+00
                    CP:  2.51D+00  3.00D+00  3.00D+00  3.00D+00  3.00D+00
                    CP:  3.00D+00  3.00D+00  3.00D+00  2.83D+00  3.00D+00
                    CP:  3.00D+00  2.19D+00  1.08D+00
 E= -3522.09020639141     Delta-E=       -0.000013589233 Rises=F Damp=F
 DIIS: error= 4.68D-05 at cycle  19 NSaved=  19.
 NSaved=19 IEnMin=19 EnMin= -3522.09020639141     IErMin=19 ErrMin= 4.68D-05
 ErrMax= 4.68D-05  0.00D+00 EMaxC= 1.00D-01 BMatC= 1.55D-05 BMatP= 1.07D-05
 IDIUse=1 WtCom= 1.00D+00 WtEn= 0.00D+00
 Coeff-Com:  0.401D-03-0.523D-03 0.108D-02 0.308D-03 0.648D-03-0.198D-01
 Coeff-Com:  0.869D-02 0.221D-01 0.133D+00-0.166D+00-0.148D+00-0.539D-01
 Coeff-Com:  0.609D+00-0.224D+00 0.303D+00-0.976D+00-0.437D+00 0.136D+01
 Coeff-Com:  0.584D+00
 Coeff:      0.401D-03-0.523D-03 0.108D-02 0.308D-03 0.648D-03-0.198D-01
 Coeff:      0.869D-02 0.221D-01 0.133D+00-0.166D+00-0.148D+00-0.539D-01
 Coeff:      0.609D+00-0.224D+00 0.303D+00-0.976D+00-0.437D+00 0.136D+01
 Coeff:      0.584D+00
 Gap=     0.363 Goal=   None    Shift=    0.000
 Gap=     0.121 Goal=   None    Shift=    0.000
 RMSDP=2.30D-05 MaxDP=3.51D-03 DE=-1.36D-05 OVMax= 1.73D-02

 Cycle  20  Pass 1  IDiag  1:
 RMSU=  4.38D-06    CP:  9.95D-01  2.72D+00  9.01D-01  6.08D-01  1.59D+00
                    CP:  2.52D+00  3.00D+00  3.00D+00  3.00D+00  3.00D+00
                    CP:  3.00D+00  3.00D+00  3.00D+00  3.00D+00  3.00D+00
                    CP:  3.00D+00  2.85D+00  2.18D+00  1.92D+00
 E= -3522.09023874362     Delta-E=       -0.000032352218 Rises=F Damp=F
 DIIS: error= 4.25D-05 at cycle  20 NSaved=  20.
 NSaved=20 IEnMin=20 EnMin= -3522.09023874362     IErMin=20 ErrMin= 4.25D-05
 ErrMax= 4.25D-05  0.00D+00 EMaxC= 1.00D-01 BMatC= 1.44D-05 BMatP= 1.07D-05
 IDIUse=1 WtCom= 1.00D+00 WtEn= 0.00D+00
 Coeff-Com:  0.605D-03-0.811D-03 0.129D-02 0.544D-03 0.405D-02-0.228D-02
 Coeff-Com: -0.769D-02-0.167D-01 0.242D-01 0.125D+00 0.120D+00-0.340D+00
 Coeff-Com:  0.652D-01 0.959D-01 0.393D+00-0.493D+00-0.884D+00 0.100D+01
 Coeff-Com: -0.699D+00 0.161D+01
 Coeff:      0.605D-03-0.811D-03 0.129D-02 0.544D-03 0.405D-02-0.228D-02
 Coeff:     -0.769D-02-0.167D-01 0.242D-01 0.125D+00 0.120D+00-0.340D+00
 Coeff:      0.652D-01 0.959D-01 0.393D+00-0.493D+00-0.884D+00 0.100D+01
 Coeff:     -0.699D+00 0.161D+01
 Gap=     0.362 Goal=   None    Shift=    0.000
 Gap=     0.121 Goal=   None    Shift=    0.000
 RMSDP=3.07D-05 MaxDP=4.87D-03 DE=-3.24D-05 OVMax= 2.38D-02

 Cycle  21  Pass 1  IDiag  1:
 Restarting incremental Fock formation.
 E= -3522.09027344862     Delta-E=       -0.000034704994 Rises=F Damp=F
 DIIS: error= 3.42D-05 at cycle  21 NSaved=  20.
 NSaved=20 IEnMin=20 EnMin= -3522.09027344862     IErMin=20 ErrMin= 3.42D-05
 ErrMax= 3.42D-05  0.00D+00 EMaxC= 1.00D-01 BMatC= 7.21D-06 BMatP= 1.07D-05
 IDIUse=1 WtCom= 1.00D+00 WtEn= 0.00D+00
 Coeff-Com: -0.147D-04-0.402D-03-0.724D-03 0.398D-02 0.219D-01 0.592D-02
 Coeff-Com: -0.851D-01-0.739D-01 0.198D+00 0.421D+00-0.218D+00-0.506D+00
 Coeff-Com: -0.159D+00 0.520D+00 0.156D+00-0.466D+00 0.406D+00-0.131D+01
 Coeff-Com:  0.106D+01 0.103D+01
 Coeff:     -0.147D-04-0.402D-03-0.724D-03 0.398D-02 0.219D-01 0.592D-02
 Coeff:     -0.851D-01-0.739D-01 0.198D+00 0.421D+00-0.218D+00-0.506D+00
 Coeff:     -0.159D+00 0.520D+00 0.156D+00-0.466D+00 0.406D+00-0.131D+01
 Coeff:      0.106D+01 0.103D+01
 Gap=     0.361 Goal=   None    Shift=    0.000
 Gap=     0.121 Goal=   None    Shift=    0.000
 RMSDP=1.74D-05 MaxDP=3.11D-03 DE=-3.47D-05 OVMax= 1.55D-02

 Cycle  22  Pass 1  IDiag  1:
 RMSU=  1.74D-05    CP:  1.00D+00
 E= -3522.09028930466     Delta-E=       -0.000015856042 Rises=F Damp=F
 DIIS: error= 3.38D-05 at cycle  22 NSaved=  20.
 NSaved=20 IEnMin=20 EnMin= -3522.09028930466     IErMin=20 ErrMin= 3.38D-05
 ErrMax= 3.38D-05  0.00D+00 EMaxC= 1.00D-01 BMatC= 7.84D-06 BMatP= 7.21D-06
 IDIUse=1 WtCom= 1.00D+00 WtEn= 0.00D+00
 Coeff-Com:  0.943D-04 0.198D-03 0.211D-02 0.222D-02 0.924D-02-0.510D-01
 Coeff-Com:  0.155D-01 0.334D-01 0.195D+00-0.686D-01-0.153D+00-0.202D+00
 Coeff-Com:  0.337D+00-0.121D+00-0.951D-01 0.523D+00-0.538D+00-0.173D+00
 Coeff-Com: -0.185D+00 0.147D+01
 Coeff:      0.943D-04 0.198D-03 0.211D-02 0.222D-02 0.924D-02-0.510D-01
 Coeff:      0.155D-01 0.334D-01 0.195D+00-0.686D-01-0.153D+00-0.202D+00
 Coeff:      0.337D+00-0.121D+00-0.951D-01 0.523D+00-0.538D+00-0.173D+00
 Coeff:     -0.185D+00 0.147D+01
 Gap=     0.361 Goal=   None    Shift=    0.000
 Gap=     0.121 Goal=   None    Shift=    0.000
 RMSDP=1.34D-05 MaxDP=2.55D-03 DE=-1.59D-05 OVMax= 1.30D-02

 Cycle  23  Pass 1  IDiag  1:
 RMSU=  2.66D-06    CP:  1.00D+00  1.75D+00
 E= -3522.09030093576     Delta-E=       -0.000011631100 Rises=F Damp=F
 DIIS: error= 3.32D-05 at cycle  23 NSaved=  20.
 NSaved=20 IEnMin=20 EnMin= -3522.09030093576     IErMin=20 ErrMin= 3.32D-05
 ErrMax= 3.32D-05  0.00D+00 EMaxC= 1.00D-01 BMatC= 7.85D-06 BMatP= 7.21D-06
 IDIUse=1 WtCom= 1.00D+00 WtEn= 0.00D+00
 Coeff-Com: -0.657D-04 0.911D-04-0.174D-02 0.733D-02-0.111D-01 0.374D-01
 Coeff-Com: -0.342D-01-0.217D-01 0.223D-01 0.172D+00-0.444D-01 0.436D-01
 Coeff-Com: -0.420D+00-0.119D+00 0.822D+00 0.586D-01-0.254D+00-0.128D+01
 Coeff-Com:  0.518D+00 0.151D+01
 Coeff:     -0.657D-04 0.911D-04-0.174D-02 0.733D-02-0.111D-01 0.374D-01
 Coeff:     -0.342D-01-0.217D-01 0.223D-01 0.172D+00-0.444D-01 0.436D-01
 Coeff:     -0.420D+00-0.119D+00 0.822D+00 0.586D-01-0.254D+00-0.128D+01
 Coeff:      0.518D+00 0.151D+01
 Gap=     0.360 Goal=   None    Shift=    0.000
 Gap=     0.121 Goal=   None    Shift=    0.000
 RMSDP=1.29D-05 MaxDP=2.56D-03 DE=-1.16D-05 OVMax= 1.30D-02

 Cycle  24  Pass 1  IDiag  1:
 RMSU=  6.11D-07    CP:  1.00D+00  2.42D+00  3.00D+00
 E= -3522.09031190149     Delta-E=       -0.000010965732 Rises=F Damp=F
 DIIS: error= 3.16D-05 at cycle  24 NSaved=  20.
 NSaved=20 IEnMin=20 EnMin= -3522.09031190149     IErMin=20 ErrMin= 3.16D-05
 ErrMax= 3.16D-05  0.00D+00 EMaxC= 1.00D-01 BMatC= 7.49D-06 BMatP= 7.21D-06
 IDIUse=1 WtCom= 1.00D+00 WtEn= 0.00D+00
 Coeff-Com:  0.886D-03 0.794D-02-0.158D-02-0.738D-02-0.244D-01 0.763D-01
 Coeff-Com:  0.249D-01-0.221D-01 0.461D-02 0.932D-01-0.287D-01-0.230D+00
 Coeff-Com: -0.351D+00 0.734D+00-0.333D+00 0.663D+00-0.663D+00-0.929D+00
 Coeff-Com:  0.223D-01 0.196D+01
 Coeff:      0.886D-03 0.794D-02-0.158D-02-0.738D-02-0.244D-01 0.763D-01
 Coeff:      0.249D-01-0.221D-01 0.461D-02 0.932D-01-0.287D-01-0.230D+00
 Coeff:     -0.351D+00 0.734D+00-0.333D+00 0.663D+00-0.663D+00-0.929D+00
 Coeff:      0.223D-01 0.196D+01
 Gap=     0.360 Goal=   None    Shift=    0.000
 Gap=     0.122 Goal=   None    Shift=    0.000
 RMSDP=1.97D-05 MaxDP=3.99D-03 DE=-1.10D-05 OVMax= 1.99D-02

 Cycle  25  Pass 1  IDiag  1:
 RMSU=  1.17D-05    CP:  1.00D+00  3.00D+00  3.00D+00  3.00D+00
 E= -3522.09032642664     Delta-E=       -0.000014525147 Rises=F Damp=F
 DIIS: error= 2.46D-05 at cycle  25 NSaved=  20.
 NSaved=20 IEnMin=20 EnMin= -3522.09032642664     IErMin=20 ErrMin= 2.46D-05
 ErrMax= 2.46D-05  0.00D+00 EMaxC= 1.00D-01 BMatC= 3.80D-06 BMatP= 7.21D-06
 IDIUse=1 WtCom= 1.00D+00 WtEn= 0.00D+00
 Coeff-Com:  0.918D-03-0.559D-02 0.478D-02-0.163D-01 0.802D-01 0.764D-01
 Coeff-Com: -0.240D+00-0.140D-01 0.107D+00 0.240D+00-0.174D+00-0.318D+00
 Coeff-Com:  0.293D+00-0.607D+00 0.874D+00 0.515D+00-0.553D+00-0.170D+01
 Coeff-Com:  0.954D+00 0.148D+01
 Coeff:      0.918D-03-0.559D-02 0.478D-02-0.163D-01 0.802D-01 0.764D-01
 Coeff:     -0.240D+00-0.140D-01 0.107D+00 0.240D+00-0.174D+00-0.318D+00
 Coeff:      0.293D+00-0.607D+00 0.874D+00 0.515D+00-0.553D+00-0.170D+01
 Coeff:      0.954D+00 0.148D+01
 Gap=     0.359 Goal=   None    Shift=    0.000
 Gap=     0.123 Goal=   None    Shift=    0.000
 RMSDP=1.72D-05 MaxDP=3.56D-03 DE=-1.45D-05 OVMax= 1.73D-02

 Cycle  26  Pass 1  IDiag  1:
 RMSU=  5.22D-06    CP:  1.00D+00  3.00D+00  3.00D+00  3.00D+00  2.41D+00
 E= -3522.09033620530     Delta-E=       -0.000009778656 Rises=F Damp=F
 DIIS: error= 1.30D-05 at cycle  26 NSaved=  20.
 NSaved=20 IEnMin=20 EnMin= -3522.09033620530     IErMin=20 ErrMin= 1.30D-05
 ErrMax= 1.30D-05  0.00D+00 EMaxC= 1.00D-01 BMatC= 7.89D-07 BMatP= 3.80D-06
 IDIUse=1 WtCom= 1.00D+00 WtEn= 0.00D+00
 Coeff-Com:  0.239D-03-0.447D-02-0.761D-02-0.147D-01 0.978D-01-0.596D-02
 Coeff-Com: -0.123D+00-0.104D+00 0.247D+00-0.395D-01 0.306D+00-0.361D+00
 Coeff-Com: -0.793D-01-0.208D+00 0.243D+00 0.826D+00-0.257D+00-0.888D+00
 Coeff-Com:  0.183D-01 0.135D+01
 Coeff:      0.239D-03-0.447D-02-0.761D-02-0.147D-01 0.978D-01-0.596D-02
 Coeff:     -0.123D+00-0.104D+00 0.247D+00-0.395D-01 0.306D+00-0.361D+00
 Coeff:     -0.793D-01-0.208D+00 0.243D+00 0.826D+00-0.257D+00-0.888D+00
 Coeff:      0.183D-01 0.135D+01
 Gap=     0.360 Goal=   None    Shift=    0.000
 Gap=     0.122 Goal=   None    Shift=    0.000
 RMSDP=1.34D-05 MaxDP=2.13D-03 DE=-9.78D-06 OVMax= 1.25D-02

 Cycle  27  Pass 1  IDiag  1:
 RMSU=  6.26D-06    CP:  1.00D+00  3.00D+00  3.00D+00  3.00D+00  2.47D+00
                    CP: -1.27D+00
 E= -3522.09033616601     Delta-E=        0.000000039288 Rises=F Damp=F
 DIIS: error= 2.48D-05 at cycle  27 NSaved=  20.
 NSaved=20 IEnMin=19 EnMin= -3522.09033620530     IErMin=19 ErrMin= 1.30D-05
 ErrMax= 2.48D-05  0.00D+00 EMaxC= 1.00D-01 BMatC= 5.21D-06 BMatP= 7.89D-07
 IDIUse=1 WtCom= 1.00D+00 WtEn= 0.00D+00
 Coeff-Com: -0.466D-02-0.748D-02-0.250D-01 0.475D-01 0.160D+00-0.169D+00
 Coeff-Com: -0.124D+00 0.789D-01 0.655D-01 0.297D+00-0.228D+00-0.186D+00
 Coeff-Com: -0.218D+00 0.269D-01 0.104D+01-0.256D+00-0.913D+00-0.145D+00
 Coeff-Com:  0.107D+01 0.494D+00
 Coeff:     -0.466D-02-0.748D-02-0.250D-01 0.475D-01 0.160D+00-0.169D+00
 Coeff:     -0.124D+00 0.789D-01 0.655D-01 0.297D+00-0.228D+00-0.186D+00
 Coeff:     -0.218D+00 0.269D-01 0.104D+01-0.256D+00-0.913D+00-0.145D+00
 Coeff:      0.107D+01 0.494D+00
 Gap=     0.359 Goal=   None    Shift=    0.000
 Gap=     0.122 Goal=   None    Shift=    0.000
 RMSDP=8.60D-06 MaxDP=1.75D-03 DE= 3.93D-08 OVMax= 8.79D-03

 Cycle  28  Pass 1  IDiag  1:
 RMSU=  2.44D-06    CP:  1.00D+00  3.00D+00  3.00D+00  3.00D+00  3.00D+00
                    CP: -8.58D-01  1.05D+00
 E= -3522.09033974623     Delta-E=       -0.000003580228 Rises=F Damp=F
 DIIS: error= 2.49D-05 at cycle  28 NSaved=  20.
 NSaved=20 IEnMin=20 EnMin= -3522.09033974623     IErMin=18 ErrMin= 1.30D-05
 ErrMax= 2.49D-05  0.00D+00 EMaxC= 1.00D-01 BMatC= 4.08D-06 BMatP= 7.89D-07
 IDIUse=1 WtCom= 1.00D+00 WtEn= 0.00D+00
 Coeff-Com:  0.465D-02-0.302D-01-0.160D-01 0.993D-01-0.465D-01-0.726D-01
 Coeff-Com:  0.374D-01-0.474D-01 0.266D+00-0.223D-01-0.819D-01-0.342D+00
 Coeff-Com: -0.395D+00 0.133D+01 0.370D+00-0.117D+01-0.621D+00 0.792D+00
 Coeff-Com: -0.105D+00 0.105D+01
 Coeff:      0.465D-02-0.302D-01-0.160D-01 0.993D-01-0.465D-01-0.726D-01
 Coeff:      0.374D-01-0.474D-01 0.266D+00-0.223D-01-0.819D-01-0.342D+00
 Coeff:     -0.395D+00 0.133D+01 0.370D+00-0.117D+01-0.621D+00 0.792D+00
 Coeff:     -0.105D+00 0.105D+01
 Gap=     0.359 Goal=   None    Shift=    0.000
 Gap=     0.122 Goal=   None    Shift=    0.000
 RMSDP=5.00D-06 MaxDP=9.81D-04 DE=-3.58D-06 OVMax= 4.60D-03

 Cycle  29  Pass 1  IDiag  1:
 RMSU=  2.97D-06    CP:  1.00D+00  3.00D+00  3.00D+00  3.00D+00  3.00D+00
                    CP: -3.10D-01  1.11D+00  2.15D+00
 E= -3522.09034257678     Delta-E=       -0.000002830548 Rises=F Damp=F
 DIIS: error= 1.09D-05 at cycle  29 NSaved=  20.
 NSaved=20 IEnMin=20 EnMin= -3522.09034257678     IErMin=20 ErrMin= 1.09D-05
 ErrMax= 1.09D-05  0.00D+00 EMaxC= 1.00D-01 BMatC= 3.86D-07 BMatP= 7.89D-07
 IDIUse=1 WtCom= 1.00D+00 WtEn= 0.00D+00
 Coeff-Com: -0.237D-01-0.211D-01 0.686D-01 0.409D-01-0.795D-01 0.651D-01
 Coeff-Com: -0.193D+00 0.219D+00 0.532D-01 0.131D+00-0.278D+00-0.656D+00
 Coeff-Com:  0.624D+00 0.663D+00-0.242D+00-0.517D+00 0.807D-01-0.562D+00
 Coeff-Com:  0.746D-01 0.155D+01
 Coeff:     -0.237D-01-0.211D-01 0.686D-01 0.409D-01-0.795D-01 0.651D-01
 Coeff:     -0.193D+00 0.219D+00 0.532D-01 0.131D+00-0.278D+00-0.656D+00
 Coeff:      0.624D+00 0.663D+00-0.242D+00-0.517D+00 0.807D-01-0.562D+00
 Coeff:      0.746D-01 0.155D+01
 Gap=     0.359 Goal=   None    Shift=    0.000
 Gap=     0.122 Goal=   None    Shift=    0.000
 RMSDP=3.88D-06 MaxDP=5.58D-04 DE=-2.83D-06 OVMax= 2.95D-03

 Cycle  30  Pass 1  IDiag  1:
 RMSU=  1.20D-06    CP:  1.00D+00  3.00D+00  3.00D+00  3.00D+00  3.00D+00
                    CP: -6.92D-01  1.48D+00  2.93D+00  1.27D+00
 E= -3522.09034318574     Delta-E=       -0.000000608954 Rises=F Damp=F
 DIIS: error= 1.38D-05 at cycle  30 NSaved=  20.
 NSaved=20 IEnMin=20 EnMin= -3522.09034318574     IErMin=19 ErrMin= 1.09D-05
 ErrMax= 1.38D-05  0.00D+00 EMaxC= 1.00D-01 BMatC= 1.47D-06 BMatP= 3.86D-07
 IDIUse=1 WtCom= 1.00D+00 WtEn= 0.00D+00
 Coeff-Com: -0.782D-02 0.685D-02 0.166D-01-0.512D-01 0.104D+00-0.152D+00
 Coeff-Com:  0.164D+00 0.507D-02-0.150D-01-0.840D-01-0.330D+00 0.428D+00
 Coeff-Com:  0.386D-01-0.329D-01-0.537D-01 0.836D-01-0.489D+00-0.429D+00
 Coeff-Com:  0.899D+00 0.898D+00
 Coeff:     -0.782D-02 0.685D-02 0.166D-01-0.512D-01 0.104D+00-0.152D+00
 Coeff:      0.164D+00 0.507D-02-0.150D-01-0.840D-01-0.330D+00 0.428D+00
 Coeff:      0.386D-01-0.329D-01-0.537D-01 0.836D-01-0.489D+00-0.429D+00
 Coeff:      0.899D+00 0.898D+00
 Gap=     0.359 Goal=   None    Shift=    0.000
 Gap=     0.122 Goal=   None    Shift=    0.000
 RMSDP=4.68D-06 MaxDP=8.62D-04 DE=-6.09D-07 OVMax= 4.80D-03

 Cycle  31  Pass 1  IDiag  1:
 RMSU=  3.62D-06    CP:  1.00D+00  3.00D+00  3.00D+00  3.00D+00  3.00D+00
                    CP: -3.39D-01  1.56D+00  3.00D+00  1.93D+00  1.25D+00
 E= -3522.09034487340     Delta-E=       -0.000001687667 Rises=F Damp=F
 DIIS: error= 1.02D-05 at cycle  31 NSaved=  20.
 NSaved=20 IEnMin=20 EnMin= -3522.09034487340     IErMin=20 ErrMin= 1.02D-05
 ErrMax= 1.02D-05  0.00D+00 EMaxC= 1.00D-01 BMatC= 5.57D-07 BMatP= 3.86D-07
 IDIUse=1 WtCom= 1.00D+00 WtEn= 0.00D+00
 Coeff-Com:  0.187D-01-0.479D-01 0.627D-02 0.360D-01-0.491D-01 0.209D+00
 Coeff-Com: -0.125D+00-0.838D-01-0.519D-01-0.825D-01 0.568D+00-0.265D+00
 Coeff-Com: -0.277D+00-0.233D-01 0.376D+00 0.469D-01-0.397D+00-0.218D+00
 Coeff-Com: -0.976D-01 0.146D+01
 Coeff:      0.187D-01-0.479D-01 0.627D-02 0.360D-01-0.491D-01 0.209D+00
 Coeff:     -0.125D+00-0.838D-01-0.519D-01-0.825D-01 0.568D+00-0.265D+00
 Coeff:     -0.277D+00-0.233D-01 0.376D+00 0.469D-01-0.397D+00-0.218D+00
 Coeff:     -0.976D-01 0.146D+01
 Gap=     0.359 Goal=   None    Shift=    0.000
 Gap=     0.123 Goal=   None    Shift=    0.000
 RMSDP=3.75D-06 MaxDP=6.47D-04 DE=-1.69D-06 OVMax= 3.61D-03

 Cycle  32  Pass 1  IDiag  1:
 RMSU=  3.98D-07    CP:  1.00D+00  3.00D+00  3.00D+00  3.00D+00  3.00D+00
                    CP: -1.08D-01  1.71D+00  3.00D+00  2.59D+00  1.95D+00
                    CP:  1.74D+00
 E= -3522.09034610467     Delta-E=       -0.000001231270 Rises=F Damp=F
 DIIS: error= 8.89D-06 at cycle  32 NSaved=  20.
 NSaved=20 IEnMin=20 EnMin= -3522.09034610467     IErMin=20 ErrMin= 8.89D-06
 ErrMax= 8.89D-06  0.00D+00 EMaxC= 1.00D-01 BMatC= 1.67D-07 BMatP= 3.86D-07
 IDIUse=1 WtCom= 1.00D+00 WtEn= 0.00D+00
 Coeff-Com: -0.245D-01 0.190D-01 0.210D-01-0.641D-01 0.192D+00-0.108D+00
 Coeff-Com: -0.667D-01-0.197D-01-0.123D+00 0.509D+00-0.179D+00-0.200D+00
 Coeff-Com: -0.429D-01 0.207D+00-0.121D+00 0.541D-01-0.133D+00-0.310D+00
 Coeff-Com:  0.316D+00 0.108D+01
 Coeff:     -0.245D-01 0.190D-01 0.210D-01-0.641D-01 0.192D+00-0.108D+00
 Coeff:     -0.667D-01-0.197D-01-0.123D+00 0.509D+00-0.179D+00-0.200D+00
 Coeff:     -0.429D-01 0.207D+00-0.121D+00 0.541D-01-0.133D+00-0.310D+00
 Coeff:      0.316D+00 0.108D+01
 Gap=     0.359 Goal=   None    Shift=    0.000
 Gap=     0.123 Goal=   None    Shift=    0.000
 RMSDP=1.90D-06 MaxDP=3.90D-04 DE=-1.23D-06 OVMax= 1.53D-03

 Cycle  33  Pass 1  IDiag  1:
 RMSU=  1.03D-07    CP:  1.00D+00  3.00D+00  3.00D+00  3.00D+00  3.00D+00
                    CP: -4.42D-03  1.80D+00  3.00D+00  2.89D+00  2.67D+00
                    CP:  2.04D+00  2.24D+00
 E= -3522.09034666997     Delta-E=       -0.000000565298 Rises=F Damp=F
 DIIS: error= 8.38D-06 at cycle  33 NSaved=  20.
 NSaved=20 IEnMin=20 EnMin= -3522.09034666997     IErMin=20 ErrMin= 8.38D-06
 ErrMax= 8.38D-06  0.00D+00 EMaxC= 1.00D-01 BMatC= 1.65D-07 BMatP= 1.67D-07
 IDIUse=1 WtCom= 1.00D+00 WtEn= 0.00D+00
 Coeff-Com: -0.176D-01 0.430D-01-0.874D-01 0.150D+00-0.458D-01-0.443D-01
 Coeff-Com:  0.998D-03-0.259D+00 0.401D+00 0.897D-01-0.946D-01-0.120D+00
 Coeff-Com: -0.863D-01-0.572D+00 0.929D+00 0.286D+00-0.157D+00-0.175D+01
 Coeff-Com:  0.341D+00 0.200D+01
 Coeff:     -0.176D-01 0.430D-01-0.874D-01 0.150D+00-0.458D-01-0.443D-01
 Coeff:      0.998D-03-0.259D+00 0.401D+00 0.897D-01-0.946D-01-0.120D+00
 Coeff:     -0.863D-01-0.572D+00 0.929D+00 0.286D+00-0.157D+00-0.175D+01
 Coeff:      0.341D+00 0.200D+01
 Gap=     0.359 Goal=   None    Shift=    0.000
 Gap=     0.123 Goal=   None    Shift=    0.000
 RMSDP=4.12D-06 MaxDP=8.19D-04 DE=-5.65D-07 OVMax= 3.21D-03

 Cycle  34  Pass 1  IDiag  1:
 RMSU=  2.04D-06    CP:  1.00D+00  3.00D+00  3.00D+00  3.00D+00  3.00D+00
                    CP:  5.73D-03  2.04D+00  3.00D+00  3.00D+00  3.00D+00
                    CP:  2.80D+00  3.00D+00  3.00D+00
 E= -3522.09034782434     Delta-E=       -0.000001154373 Rises=F Damp=F
 DIIS: error= 8.04D-06 at cycle  34 NSaved=  20.
 NSaved=20 IEnMin=20 EnMin= -3522.09034782434     IErMin=20 ErrMin= 8.04D-06
 ErrMax= 8.04D-06  0.00D+00 EMaxC= 1.00D-01 BMatC= 1.84D-07 BMatP= 1.65D-07
 IDIUse=1 WtCom= 1.00D+00 WtEn= 0.00D+00
 Coeff-Com:  0.360D-01-0.968D-01 0.130D+00-0.196D-01-0.627D-01-0.139D-01
 Coeff-Com: -0.234D+00 0.451D+00 0.383D-01-0.175D+00-0.108D+00 0.424D-01
 Coeff-Com: -0.409D+00 0.677D+00 0.115D+00-0.191D+00-0.101D+01-0.320D+00
 Coeff-Com:  0.111D+01 0.104D+01
 Coeff:      0.360D-01-0.968D-01 0.130D+00-0.196D-01-0.627D-01-0.139D-01
 Coeff:     -0.234D+00 0.451D+00 0.383D-01-0.175D+00-0.108D+00 0.424D-01
 Coeff:     -0.409D+00 0.677D+00 0.115D+00-0.191D+00-0.101D+01-0.320D+00
 Coeff:      0.111D+01 0.104D+01
 Gap=     0.359 Goal=   None    Shift=    0.000
 Gap=     0.123 Goal=   None    Shift=    0.000
 RMSDP=4.74D-06 MaxDP=8.76D-04 DE=-1.15D-06 OVMax= 4.45D-03

 Cycle  35  Pass 1  IDiag  1:
 RMSU=  2.86D-06    CP:  1.00D+00  3.00D+00  3.00D+00  3.00D+00  3.00D+00
                    CP:  2.58D-01  2.20D+00  3.00D+00  3.00D+00  3.00D+00
                    CP:  3.00D+00  3.00D+00  3.00D+00  2.30D+00
 E= -3522.09034907419     Delta-E=       -0.000001249844 Rises=F Damp=F
 DIIS: error= 7.15D-06 at cycle  35 NSaved=  20.
 NSaved=20 IEnMin=20 EnMin= -3522.09034907419     IErMin=20 ErrMin= 7.15D-06
 ErrMax= 7.15D-06  0.00D+00 EMaxC= 1.00D-01 BMatC= 1.41D-07 BMatP= 1.65D-07
 IDIUse=1 WtCom= 1.00D+00 WtEn= 0.00D+00
 Coeff-Com: -0.950D-01 0.158D+00 0.347D-01 0.729D-01-0.141D+00-0.445D+00
 Coeff-Com:  0.394D+00 0.439D+00-0.195D+00-0.505D+00 0.214D+00 0.856D-01
 Coeff-Com: -0.357D+00 0.822D+00 0.187D+00-0.225D+00-0.115D+01-0.135D+01
 Coeff-Com: -0.216D+00 0.328D+01
 Coeff:     -0.950D-01 0.158D+00 0.347D-01 0.729D-01-0.141D+00-0.445D+00
 Coeff:      0.394D+00 0.439D+00-0.195D+00-0.505D+00 0.214D+00 0.856D-01
 Coeff:     -0.357D+00 0.822D+00 0.187D+00-0.225D+00-0.115D+01-0.135D+01
 Coeff:     -0.216D+00 0.328D+01
 Gap=     0.359 Goal=   None    Shift=    0.000
 Gap=     0.123 Goal=   None    Shift=    0.000
 RMSDP=1.59D-05 MaxDP=3.34D-03 DE=-1.25D-06 OVMax= 1.25D-02

 Cycle  36  Pass 1  IDiag  1:
 RMSU=  1.09D-05    CP:  1.00D+00  3.00D+00  3.00D+00  3.00D+00  3.00D+00
                    CP:  8.53D-01  2.91D+00  3.00D+00  3.00D+00  3.00D+00
                    CP:  3.00D+00  3.00D+00  3.00D+00  3.00D+00  3.00D+00
 E= -3522.09035270634     Delta-E=       -0.000003632147 Rises=F Damp=F
 DIIS: error= 4.76D-06 at cycle  36 NSaved=  20.
 NSaved=20 IEnMin=20 EnMin= -3522.09035270634     IErMin=20 ErrMin= 4.76D-06
 ErrMax= 4.76D-06  0.00D+00 EMaxC= 1.00D-01 BMatC= 1.10D-07 BMatP= 1.41D-07
 IDIUse=1 WtCom= 1.00D+00 WtEn= 0.00D+00
 Coeff-Com:  0.799D-01-0.464D-01-0.122D+00 0.147D+00-0.153D+00 0.842D-01
 Coeff-Com: -0.455D-01 0.227D+00-0.136D+00-0.758D-01-0.312D+00 0.149D+00
 Coeff-Com:  0.681D+00 0.470D+00-0.113D+01-0.534D+00 0.861D-01-0.420D+00
 Coeff-Com:  0.715D+00 0.133D+01
 Coeff:      0.799D-01-0.464D-01-0.122D+00 0.147D+00-0.153D+00 0.842D-01
 Coeff:     -0.455D-01 0.227D+00-0.136D+00-0.758D-01-0.312D+00 0.149D+00
 Coeff:      0.681D+00 0.470D+00-0.113D+01-0.534D+00 0.861D-01-0.420D+00
 Coeff:      0.715D+00 0.133D+01
 Gap=     0.359 Goal=   None    Shift=    0.000
 Gap=     0.123 Goal=   None    Shift=    0.000
 RMSDP=1.12D-05 MaxDP=2.37D-03 DE=-3.63D-06 OVMax= 8.63D-03

 Cycle  37  Pass 1  IDiag  1:
 RMSU=  4.48D-06    CP:  1.00D+00  3.00D+00  3.00D+00  3.00D+00  3.00D+00
                    CP:  9.07D-01  3.00D+00  3.00D+00  3.00D+00  3.00D+00
                    CP:  3.00D+00  3.00D+00  3.00D+00  3.00D+00  3.00D+00
                    CP:  1.93D+00
 E= -3522.09035456876     Delta-E=       -0.000001862421 Rises=F Damp=F
 DIIS: error= 4.25D-06 at cycle  37 NSaved=  20.
 NSaved=20 IEnMin=20 EnMin= -3522.09035456876     IErMin=20 ErrMin= 4.25D-06
 ErrMax= 4.25D-06  0.00D+00 EMaxC= 1.00D-01 BMatC= 1.10D-07 BMatP= 1.10D-07
 IDIUse=1 WtCom= 1.00D+00 WtEn= 0.00D+00
 Coeff-Com: -0.161D-01-0.149D+00 0.272D+00-0.167D-01-0.111D+00-0.310D+00
 Coeff-Com:  0.431D+00 0.199D+00-0.184D+00-0.676D+00 0.229D+00 0.450D+00
 Coeff-Com:  0.456D+00-0.106D+01-0.283D+00 0.821D+00 0.686D+00-0.163D+01
 Coeff-Com:  0.319D+00 0.157D+01
 Coeff:     -0.161D-01-0.149D+00 0.272D+00-0.167D-01-0.111D+00-0.310D+00
 Coeff:      0.431D+00 0.199D+00-0.184D+00-0.676D+00 0.229D+00 0.450D+00
 Coeff:      0.456D+00-0.106D+01-0.283D+00 0.821D+00 0.686D+00-0.163D+01
 Coeff:      0.319D+00 0.157D+01
 Gap=     0.359 Goal=   None    Shift=    0.000
 Gap=     0.123 Goal=   None    Shift=    0.000
 RMSDP=1.94D-05 MaxDP=4.14D-03 DE=-1.86D-06 OVMax= 1.47D-02

 Cycle  38  Pass 1  IDiag  1:
 RMSU=  5.85D-06    CP:  1.00D+00  3.00D+00  3.00D+00  3.00D+00  3.00D+00
                    CP:  1.72D+00  3.00D+00  3.00D+00  3.00D+00  3.00D+00
                    CP:  3.00D+00  3.00D+00  3.00D+00  3.00D+00  3.00D+00
                    CP:  3.00D+00  2.65D+00
 E= -3522.09035655055     Delta-E=       -0.000001981793 Rises=F Damp=F
 DIIS: error= 6.16D-06 at cycle  38 NSaved=  20.
 NSaved=20 IEnMin=20 EnMin= -3522.09035655055     IErMin=19 ErrMin= 4.25D-06
 ErrMax= 6.16D-06  0.00D+00 EMaxC= 1.00D-01 BMatC= 2.59D-07 BMatP= 1.10D-07
 IDIUse=1 WtCom= 1.00D+00 WtEn= 0.00D+00
 Coeff-Com: -0.149D+00 0.259D+00-0.571D-01-0.954D-01-0.256D+00 0.411D+00
 Coeff-Com:  0.153D+00-0.186D+00-0.625D+00 0.265D+00 0.465D+00 0.458D+00
 Coeff-Com: -0.118D+01-0.518D+00 0.829D+00 0.127D+01-0.170D+01 0.724D-02
 Coeff-Com:  0.142D+01 0.222D+00
 Coeff:     -0.149D+00 0.259D+00-0.571D-01-0.954D-01-0.256D+00 0.411D+00
 Coeff:      0.153D+00-0.186D+00-0.625D+00 0.265D+00 0.465D+00 0.458D+00
 Coeff:     -0.118D+01-0.518D+00 0.829D+00 0.127D+01-0.170D+01 0.724D-02
 Coeff:      0.142D+01 0.222D+00
 Gap=     0.359 Goal=   None    Shift=    0.000
 Gap=     0.123 Goal=   None    Shift=    0.000
 RMSDP=1.72D-06 MaxDP=3.64D-04 DE=-1.98D-06 OVMax= 1.53D-03

 Cycle  39  Pass 1  IDiag  1:
 RMSU=  6.40D-07    CP:  1.00D+00  3.00D+00  3.00D+00  3.00D+00  3.00D+00
                    CP:  1.67D+00  3.00D+00  3.00D+00  3.00D+00  3.00D+00
                    CP:  3.00D+00  3.00D+00  3.00D+00  3.00D+00  3.00D+00
                    CP:  3.00D+00  2.80D+00  1.25D+00
 E= -3522.09035667490     Delta-E=       -0.000000124346 Rises=F Damp=F
 DIIS: error= 5.18D-06 at cycle  39 NSaved=  20.
 NSaved=20 IEnMin=20 EnMin= -3522.09035667490     IErMin=18 ErrMin= 4.25D-06
 ErrMax= 5.18D-06  0.00D+00 EMaxC= 1.00D-01 BMatC= 1.86D-07 BMatP= 1.10D-07
 IDIUse=1 WtCom= 1.00D+00 WtEn= 0.00D+00
 Coeff-Com:  0.786D-01-0.124D+00-0.263D-01-0.643D-01 0.178D+00-0.125D-01
 Coeff-Com:  0.424D-01-0.366D-02-0.448D+00 0.358D+00 0.404D+00-0.759D-01
 Coeff-Com: -0.105D+01-0.617D+00 0.136D+01 0.235D-01-0.223D+00 0.308D+00
 Coeff-Com: -0.220D+01 0.310D+01
 Coeff:      0.786D-01-0.124D+00-0.263D-01-0.643D-01 0.178D+00-0.125D-01
 Coeff:      0.424D-01-0.366D-02-0.448D+00 0.358D+00 0.404D+00-0.759D-01
 Coeff:     -0.105D+01-0.617D+00 0.136D+01 0.235D-01-0.223D+00 0.308D+00
 Coeff:     -0.220D+01 0.310D+01
 Gap=     0.359 Goal=   None    Shift=    0.000
 Gap=     0.123 Goal=   None    Shift=    0.000
 RMSDP=9.21D-06 MaxDP=1.98D-03 DE=-1.24D-07 OVMax= 7.64D-03

 Cycle  40  Pass 1  IDiag  1:
 RMSU=  3.18D-06    CP:  1.00D+00  3.00D+00  3.00D+00  3.00D+00  3.00D+00
                    CP:  1.57D+00  3.00D+00  3.00D+00  3.00D+00  3.00D+00
                    CP:  3.00D+00  3.00D+00  3.00D+00  3.00D+00  3.00D+00
                    CP:  3.00D+00  3.00D+00  2.61D+00  3.00D+00
 E= -3522.09035704765     Delta-E=       -0.000000372755 Rises=F Damp=F
 DIIS: error= 4.43D-06 at cycle  40 NSaved=  20.
 NSaved=20 IEnMin=20 EnMin= -3522.09035704765     IErMin=17 ErrMin= 4.25D-06
 ErrMax= 4.43D-06  0.00D+00 EMaxC= 1.00D-01 BMatC= 9.92D-08 BMatP= 1.10D-07
 IDIUse=1 WtCom= 1.00D+00 WtEn= 0.00D+00
 Coeff-Com: -0.772D-01 0.101D+00-0.449D-01 0.114D-02-0.511D-01 0.141D+00
 Coeff-Com:  0.809D-01-0.534D+00 0.358D+00 0.329D+00 0.445D+00-0.975D+00
 Coeff-Com: -0.106D+01 0.700D+00 0.951D+00 0.551D-01-0.235D+00-0.296D+01
 Coeff-Com:  0.289D+01 0.886D+00
 Coeff:     -0.772D-01 0.101D+00-0.449D-01 0.114D-02-0.511D-01 0.141D+00
 Coeff:      0.809D-01-0.534D+00 0.358D+00 0.329D+00 0.445D+00-0.975D+00
 Coeff:     -0.106D+01 0.700D+00 0.951D+00 0.551D-01-0.235D+00-0.296D+01
 Coeff:      0.289D+01 0.886D+00
 Gap=     0.359 Goal=   None    Shift=    0.000
 Gap=     0.123 Goal=   None    Shift=    0.000
 RMSDP=3.99D-06 MaxDP=8.78D-04 DE=-3.73D-07 OVMax= 3.23D-03

 Cycle  41  Pass 1  IDiag  1:
 Restarting incremental Fock formation.
 E= -3522.09035694827     Delta-E=        0.000000099384 Rises=F Damp=F
 DIIS: error= 2.07D-06 at cycle  41 NSaved=  20.
 NSaved=20 IEnMin=19 EnMin= -3522.09035704765     IErMin=20 ErrMin= 2.07D-06
 ErrMax= 2.07D-06  0.00D+00 EMaxC= 1.00D-01 BMatC= 3.81D-08 BMatP= 9.92D-08
 IDIUse=1 WtCom= 1.00D+00 WtEn= 0.00D+00
 Coeff-Com:  0.259D-01-0.740D-01 0.471D-01 0.211D-02 0.527D-01 0.184D+00
 Coeff-Com: -0.458D+00 0.763D-01 0.230D+00 0.434D+00-0.320D+00-0.613D+00
 Coeff-Com: -0.449D-01 0.194D+00 0.394D+00 0.469D-01-0.843D+00 0.748D+00
 Coeff-Com:  0.300D+00 0.617D+00
 Coeff:      0.259D-01-0.740D-01 0.471D-01 0.211D-02 0.527D-01 0.184D+00
 Coeff:     -0.458D+00 0.763D-01 0.230D+00 0.434D+00-0.320D+00-0.613D+00
 Coeff:     -0.449D-01 0.194D+00 0.394D+00 0.469D-01-0.843D+00 0.748D+00
 Coeff:      0.300D+00 0.617D+00
 Gap=     0.359 Goal=   None    Shift=    0.000
 Gap=     0.123 Goal=   None    Shift=    0.000
 RMSDP=2.78D-06 MaxDP=6.12D-04 DE= 9.94D-08 OVMax= 2.66D-03

 Cycle  42  Pass 1  IDiag  1:
 RMSU=  2.78D-06    CP:  1.00D+00
 E= -3522.09035704513     Delta-E=       -0.000000096865 Rises=F Damp=F
 DIIS: error= 2.05D-06 at cycle  42 NSaved=  20.
 NSaved=20 IEnMin=18 EnMin= -3522.09035704765     IErMin=20 ErrMin= 2.05D-06
 ErrMax= 2.05D-06  0.00D+00 EMaxC= 1.00D-01 BMatC= 2.28D-08 BMatP= 3.81D-08
 IDIUse=1 WtCom= 1.00D+00 WtEn= 0.00D+00
 Coeff-Com: -0.167D-01 0.114D-01 0.313D-01-0.501D-01 0.390D-01 0.366D-01
 Coeff-Com: -0.977D-01-0.180D-02-0.154D-01 0.294D+00 0.167D+00-0.616D+00
 Coeff-Com: -0.162D+00 0.402D+00-0.189D-01 0.376D+00-0.792D+00-0.165D+00
 Coeff-Com:  0.582D+00 0.995D+00
 Coeff:     -0.167D-01 0.114D-01 0.313D-01-0.501D-01 0.390D-01 0.366D-01
 Coeff:     -0.977D-01-0.180D-02-0.154D-01 0.294D+00 0.167D+00-0.616D+00
 Coeff:     -0.162D+00 0.402D+00-0.189D-01 0.376D+00-0.792D+00-0.165D+00
 Coeff:      0.582D+00 0.995D+00
 Gap=     0.359 Goal=   None    Shift=    0.000
 Gap=     0.123 Goal=   None    Shift=    0.000
 RMSDP=5.66D-06 MaxDP=1.21D-03 DE=-9.69D-08 OVMax= 4.27D-03

 Cycle  43  Pass 1  IDiag  1:
 RMSU=  2.66D-06    CP:  1.00D+00  2.79D+00
 E= -3522.09035715149     Delta-E=       -0.000000106356 Rises=F Damp=F
 DIIS: error= 2.49D-06 at cycle  43 NSaved=  20.
 NSaved=20 IEnMin=20 EnMin= -3522.09035715149     IErMin=19 ErrMin= 2.05D-06
 ErrMax= 2.49D-06  0.00D+00 EMaxC= 1.00D-01 BMatC= 4.06D-08 BMatP= 2.28D-08
 IDIUse=1 WtCom= 1.00D+00 WtEn= 0.00D+00
 Coeff-Com: -0.894D-02 0.119D-02-0.546D-02 0.723D-01-0.354D-01-0.618D-01
 Coeff-Com: -0.605D-02 0.915D-01 0.121D+00 0.722D-02-0.336D+00-0.271D-01
 Coeff-Com:  0.277D+00-0.629D-01 0.166D+00-0.608D+00-0.225D+00 0.497D+00
 Coeff-Com:  0.475D+00 0.668D+00
 Coeff:     -0.894D-02 0.119D-02-0.546D-02 0.723D-01-0.354D-01-0.618D-01
 Coeff:     -0.605D-02 0.915D-01 0.121D+00 0.722D-02-0.336D+00-0.271D-01
 Coeff:      0.277D+00-0.629D-01 0.166D+00-0.608D+00-0.225D+00 0.497D+00
 Coeff:      0.475D+00 0.668D+00
 Gap=     0.359 Goal=   None    Shift=    0.000
 Gap=     0.123 Goal=   None    Shift=    0.000
 RMSDP=5.89D-07 MaxDP=1.09D-04 DE=-1.06D-07 OVMax= 5.17D-04

 Cycle  44  Pass 1  IDiag  1:
 RMSU=  3.19D-07    CP:  1.00D+00  2.97D+00  1.03D+00
 E= -3522.09035715989     Delta-E=       -0.000000008406 Rises=F Damp=F
 DIIS: error= 8.28D-07 at cycle  44 NSaved=  20.
 NSaved=20 IEnMin=20 EnMin= -3522.09035715989     IErMin=20 ErrMin= 8.28D-07
 ErrMax= 8.28D-07  0.00D+00 EMaxC= 1.00D-01 BMatC= 4.85D-09 BMatP= 2.28D-08
 IDIUse=1 WtCom= 1.00D+00 WtEn= 0.00D+00
 Coeff-Com: -0.125D-01 0.477D-01 0.570D-01-0.139D+00-0.147D-01 0.238D-01
 Coeff-Com:  0.199D+00-0.158D+00-0.237D+00 0.230D+00-0.142D-01-0.403D-01
 Coeff-Com:  0.989D-01 0.475D-02 0.155D+00-0.939D-01-0.851D-01-0.410D+00
 Coeff-Com: -0.410D+00 0.180D+01
 Coeff:     -0.125D-01 0.477D-01 0.570D-01-0.139D+00-0.147D-01 0.238D-01
 Coeff:      0.199D+00-0.158D+00-0.237D+00 0.230D+00-0.142D-01-0.403D-01
 Coeff:      0.989D-01 0.475D-02 0.155D+00-0.939D-01-0.851D-01-0.410D+00
 Coeff:     -0.410D+00 0.180D+01
 Gap=     0.359 Goal=   None    Shift=    0.000
 Gap=     0.123 Goal=   None    Shift=    0.000
 RMSDP=1.70D-06 MaxDP=3.71D-04 DE=-8.41D-09 OVMax= 1.35D-03

 Cycle  45  Pass 1  IDiag  1:
 RMSU=  1.53D-06    CP:  1.00D+00  3.00D+00  1.23D+00  6.04D-01
 E= -3522.09035717381     Delta-E=       -0.000000013913 Rises=F Damp=F
 DIIS: error= 5.82D-07 at cycle  45 NSaved=  20.
 NSaved=20 IEnMin=20 EnMin= -3522.09035717381     IErMin=20 ErrMin= 5.82D-07
 ErrMax= 5.82D-07  0.00D+00 EMaxC= 1.00D-01 BMatC= 1.15D-09 BMatP= 4.85D-09
 IDIUse=1 WtCom= 1.00D+00 WtEn= 0.00D+00
 Coeff-Com:  0.173D-01-0.388D-02-0.252D-01 0.506D-02-0.207D-02 0.422D-01
 Coeff-Com: -0.672D-01-0.858D-01 0.161D+00-0.127D-02-0.975D-01 0.465D-01
 Coeff-Com: -0.969D-01 0.422D+00 0.855D-01-0.242D+00-0.334D+00-0.831D+00
 Coeff-Com:  0.718D+00 0.129D+01
 Coeff:      0.173D-01-0.388D-02-0.252D-01 0.506D-02-0.207D-02 0.422D-01
 Coeff:     -0.672D-01-0.858D-01 0.161D+00-0.127D-02-0.975D-01 0.465D-01
 Coeff:     -0.969D-01 0.422D+00 0.855D-01-0.242D+00-0.334D+00-0.831D+00
 Coeff:      0.718D+00 0.129D+01
 Gap=     0.359 Goal=   None    Shift=    0.000
 Gap=     0.123 Goal=   None    Shift=    0.000
 RMSDP=9.98D-07 MaxDP=2.07D-04 DE=-1.39D-08 OVMax= 7.27D-04

 Cycle  46  Pass 1  IDiag  1:
 RMSU=  9.03D-08    CP:  1.00D+00  3.00D+00  1.36D+00 -3.19D-02  1.59D+00
 E= -3522.09035717904     Delta-E=       -0.000000005235 Rises=F Damp=F
 DIIS: error= 3.62D-07 at cycle  46 NSaved=  20.
 NSaved=20 IEnMin=20 EnMin= -3522.09035717904     IErMin=20 ErrMin= 3.62D-07
 ErrMax= 3.62D-07  0.00D+00 EMaxC= 1.00D-01 BMatC= 3.87D-10 BMatP= 1.15D-09
 IDIUse=1 WtCom= 1.00D+00 WtEn= 0.00D+00
 Coeff-Com: -0.829D-02 0.217D-01-0.437D-02-0.222D-01 0.301D-02 0.849D-01
 Coeff-Com:  0.870D-02-0.150D+00 0.423D-01 0.404D-01-0.250D-01-0.742D-02
 Coeff-Com:  0.927D-01 0.806D-01-0.429D-01 0.113D+00-0.277D+00-0.481D+00
 Coeff-Com:  0.465D+00 0.107D+01
 Coeff:     -0.829D-02 0.217D-01-0.437D-02-0.222D-01 0.301D-02 0.849D-01
 Coeff:      0.870D-02-0.150D+00 0.423D-01 0.404D-01-0.250D-01-0.742D-02
 Coeff:      0.927D-01 0.806D-01-0.429D-01 0.113D+00-0.277D+00-0.481D+00
 Coeff:      0.465D+00 0.107D+01
 Gap=     0.359 Goal=   None    Shift=    0.000
 Gap=     0.123 Goal=   None    Shift=    0.000
 RMSDP=5.09D-07 MaxDP=9.21D-05 DE=-5.24D-09 OVMax= 4.11D-04

 Cycle  47  Pass 1  IDiag  1:
 RMSU=  4.73D-08    CP:  1.00D+00  3.00D+00  1.32D+00 -8.68D-01  1.35D+00
                    CP:  3.00D+00
 E= -3522.09035718414     Delta-E=       -0.000000005102 Rises=F Damp=F
 DIIS: error= 2.73D-07 at cycle  47 NSaved=  20.
 NSaved=20 IEnMin=20 EnMin= -3522.09035718414     IErMin=20 ErrMin= 2.73D-07
 ErrMax= 2.73D-07  0.00D+00 EMaxC= 1.00D-01 BMatC= 2.69D-10 BMatP= 3.87D-10
 IDIUse=1 WtCom= 1.00D+00 WtEn= 0.00D+00
 Coeff-Com:  0.247D-01-0.329D-01-0.324D-01 0.223D-01 0.923D-01 0.244D-01
 Coeff-Com: -0.999D-01-0.469D-01 0.320D-01 0.344D-01 0.979D-01-0.102D+00
 Coeff-Com:  0.466D-02-0.142D-01 0.966D-01-0.654D-02-0.204D+00-0.262D+00
 Coeff-Com:  0.203D+00 0.117D+01
 Coeff:      0.247D-01-0.329D-01-0.324D-01 0.223D-01 0.923D-01 0.244D-01
 Coeff:     -0.999D-01-0.469D-01 0.320D-01 0.344D-01 0.979D-01-0.102D+00
 Coeff:      0.466D-02-0.142D-01 0.966D-01-0.654D-02-0.204D+00-0.262D+00
 Coeff:      0.203D+00 0.117D+01
 Gap=     0.359 Goal=   None    Shift=    0.000
 Gap=     0.123 Goal=   None    Shift=    0.000
 RMSDP=3.61D-07 MaxDP=5.02D-05 DE=-5.10D-09 OVMax= 2.93D-04

 Cycle  48  Pass 1  IDiag  1:
 RMSU=  1.56D-07    CP:  1.00D+00  3.00D+00  1.31D+00 -1.75D+00  1.26D+00
                    CP:  3.00D+00  2.60D+00
 E= -3522.09035718709     Delta-E=       -0.000000002947 Rises=F Damp=F
 DIIS: error= 2.22D-07 at cycle  48 NSaved=  20.
 NSaved=20 IEnMin=20 EnMin= -3522.09035718709     IErMin=20 ErrMin= 2.22D-07
 ErrMax= 2.22D-07  0.00D+00 EMaxC= 1.00D-01 BMatC= 7.77D-11 BMatP= 2.69D-10
 IDIUse=1 WtCom= 1.00D+00 WtEn= 0.00D+00
 Coeff-Com: -0.136D-01-0.816D-02 0.193D-01 0.393D-01-0.830D-02-0.371D-01
 Coeff-Com: -0.208D-01 0.126D-01 0.353D-01 0.193D-01-0.763D-01-0.266D-01
 Coeff-Com:  0.265D-01 0.312D-01 0.533D-01 0.144D+00-0.279D+00-0.505D+00
 Coeff-Com:  0.325D+00 0.127D+01
 Coeff:     -0.136D-01-0.816D-02 0.193D-01 0.393D-01-0.830D-02-0.371D-01
 Coeff:     -0.208D-01 0.126D-01 0.353D-01 0.193D-01-0.763D-01-0.266D-01
 Coeff:      0.265D-01 0.312D-01 0.533D-01 0.144D+00-0.279D+00-0.505D+00
 Coeff:      0.325D+00 0.127D+01
 Gap=     0.359 Goal=   None    Shift=    0.000
 Gap=     0.123 Goal=   None    Shift=    0.000
 RMSDP=2.85D-07 MaxDP=4.22D-05 DE=-2.95D-09 OVMax= 2.28D-04

 Cycle  49  Pass 1  IDiag  1:
 RMSU=  2.99D-08    CP:  1.00D+00  3.00D+00  1.33D+00 -2.40D+00  1.16D+00
                    CP:  3.00D+00  3.00D+00  1.61D+00
 E= -3522.09035718830     Delta-E=       -0.000000001208 Rises=F Damp=F
 DIIS: error= 2.41D-07 at cycle  49 NSaved=  20.
 NSaved=20 IEnMin=20 EnMin= -3522.09035718830     IErMin=19 ErrMin= 2.22D-07
 ErrMax= 2.41D-07  0.00D+00 EMaxC= 1.00D-01 BMatC= 3.90D-10 BMatP= 7.77D-11
 IDIUse=1 WtCom= 1.00D+00 WtEn= 0.00D+00
 Coeff-Com: -0.140D-02-0.313D-02-0.430D-02-0.446D-02 0.140D-01-0.474D-02
 Coeff-Com: -0.593D-02 0.155D-01-0.113D-01 0.820D-02-0.142D-01 0.145D-01
 Coeff-Com: -0.123D-01-0.139D+00 0.147D+00 0.970D-01-0.163D+00-0.323D+00
[...]
     4 C(13)  Bbb    -0.0098    -1.308    -0.467    -0.436  0.1467  0.9619  0.2306
              Bcc     0.0296     3.966     1.415     1.323  0.1280 -0.2496  0.9599
 
              Baa    -0.0234    -3.143    -1.121    -1.048  0.9782  0.1127  0.1745
     5 C(13)  Bbb    -0.0224    -3.001    -1.071    -1.001 -0.1965  0.7745  0.6012
              Bcc     0.0458     6.143     2.192     2.049 -0.0674 -0.6224  0.7798
 
              Baa    -0.0040    -0.533    -0.190    -0.178  0.6708  0.0549  0.7396
     6 C(13)  Bbb    -0.0040    -0.533    -0.190    -0.178  0.6771 -0.4522 -0.5806
              Bcc     0.0079     1.066     0.380     0.356  0.3025  0.8902 -0.3405
 
              Baa    -0.0009    -0.120    -0.043    -0.040  0.9501 -0.0298  0.3105
     7 C(13)  Bbb    -0.0008    -0.101    -0.036    -0.034 -0.3116 -0.0497  0.9489
              Bcc     0.0017     0.222     0.079     0.074  0.0129  0.9983  0.0565
 
              Baa    -0.0024    -1.199    -0.428    -0.400  0.2222 -0.3659  0.9038
     8 F(19)  Bbb    -0.0022    -1.106    -0.394    -0.369  0.9626  0.2298 -0.1436
              Bcc     0.0046     2.304     0.822     0.769 -0.1552  0.9018  0.4032
 
              Baa    -0.0011    -0.558    -0.199    -0.186  0.9591 -0.1702  0.2260
     9 F(19)  Bbb    -0.0003    -0.136    -0.049    -0.045  0.2569  0.8586 -0.4437
              Bcc     0.0014     0.694     0.248     0.232 -0.1185  0.4836  0.8672
 
              Baa    -0.0007    -0.092    -0.033    -0.031  0.2388  0.1399  0.9609
    10 C(13)  Bbb    -0.0005    -0.072    -0.026    -0.024  0.9430  0.2027 -0.2639
              Bcc     0.0012     0.164     0.059     0.055 -0.2317  0.9692 -0.0835
 
              Baa    -0.0012    -0.587    -0.210    -0.196  0.1072  0.1854  0.9768
    11 F(19)  Bbb    -0.0006    -0.318    -0.113    -0.106  0.9159  0.3638 -0.1696
              Bcc     0.0018     0.905     0.323     0.302 -0.3868  0.9128 -0.1309
 
              Baa    -0.0006    -0.286    -0.102    -0.095 -0.1420  0.2859  0.9477
    12 F(19)  Bbb    -0.0003    -0.139    -0.050    -0.046  0.9580  0.2805  0.0589
              Bcc     0.0008     0.425     0.152     0.142 -0.2490  0.9163 -0.3137
 
              Baa    -0.0004     0.028     0.010     0.009  0.2880  0.0494  0.9563
    13 O(17)  Bbb    -0.0003     0.025     0.009     0.008  0.9183  0.2690 -0.2905
              Bcc     0.0007    -0.053    -0.019    -0.018 -0.2716  0.9619  0.0321
 
              Baa    -0.0003    -0.037    -0.013    -0.012  0.0754  0.1098  0.9911
    14 C(13)  Bbb    -0.0002    -0.033    -0.012    -0.011  0.9270  0.3584 -0.1103
              Bcc     0.0005     0.070     0.025     0.023 -0.3673  0.9271 -0.0748
 
              Baa    -0.0002    -0.098    -0.035    -0.033  0.0892  0.0088  0.9960
    15 F(19)  Bbb    -0.0002    -0.092    -0.033    -0.031  0.9009  0.4257 -0.0845
              Bcc     0.0004     0.190     0.068     0.063 -0.4248  0.9048  0.0301
 
              Baa    -0.0003    -0.168    -0.060    -0.056 -0.0126  0.2083  0.9780
    16 F(19)  Bbb    -0.0003    -0.150    -0.054    -0.050  0.8841  0.4592 -0.0864
              Bcc     0.0006     0.318     0.113     0.106 -0.4671  0.8636 -0.1899
 
              Baa    -0.0002    -0.102    -0.036    -0.034  0.0836  0.1990  0.9764
    17 F(19)  Bbb    -0.0002    -0.095    -0.034    -0.032  0.9559  0.2607 -0.1350
              Bcc     0.0004     0.197     0.070     0.066 -0.2814  0.9447 -0.1684
 
              Baa    -0.0628    -8.432    -3.009    -2.813  0.0007 -0.0620  0.9981
    18 C(13)  Bbb     0.0164     2.207     0.787     0.736  0.9979 -0.0641 -0.0047
              Bcc     0.0464     6.226     2.221     2.077  0.0643  0.9960  0.0619
 
              Baa    -0.2608    18.869     6.733     6.294  0.1534 -0.5174  0.8419
    19 O(17)  Bbb    -0.0357     2.582     0.921     0.861  0.9517  0.3065  0.0150
              Bcc     0.2964   -21.451    -7.654    -7.155 -0.2658  0.7990  0.5394
 
              Baa    -0.5865   -22.620    -8.071    -7.545  0.7792  0.5852  0.2244
    20 N(14)  Bbb    -0.5808   -22.399    -7.993    -7.471 -0.6035  0.7972  0.0166
              Bcc     1.1673    45.019    16.064    15.017 -0.1692 -0.1484  0.9743
 
              Baa    -0.0442    -5.935    -2.118    -1.980  0.6314  0.7740  0.0475
    21 C(13)  Bbb    -0.0247    -3.317    -1.183    -1.106  0.7694 -0.6330  0.0860
              Bcc     0.0689     9.251     3.301     3.086 -0.0967  0.0177  0.9952
 
              Baa    -0.0550    -7.379    -2.633    -2.461  0.6466  0.7609  0.0542
    22 C(13)  Bbb    -0.0537    -7.205    -2.571    -2.403  0.6656 -0.5975  0.4471
              Bcc     0.1087    14.584     5.204     4.865 -0.3726  0.2530  0.8928
 
              Baa    -0.0094    -1.255    -0.448    -0.419  0.4956  0.8595  0.1248
    23 C(13)  Bbb    -0.0090    -1.205    -0.430    -0.402  0.4307 -0.3680  0.8241
              Bcc     0.0183     2.460     0.878     0.821  0.7542 -0.3547 -0.5526
 
              Baa    -0.0017    -0.228    -0.081    -0.076  0.7249  0.5264  0.4444
    24 C(13)  Bbb    -0.0015    -0.198    -0.071    -0.066 -0.2798 -0.3645  0.8882
              Bcc     0.0032     0.426     0.152     0.142 -0.6295  0.7681  0.1170
 
              Baa    -0.0021    -1.059    -0.378    -0.353  0.2145 -0.2382  0.9472
    25 F(19)  Bbb    -0.0017    -0.849    -0.303    -0.283  0.8903  0.4465 -0.0893
              Bcc     0.0038     1.908     0.681     0.637 -0.4017  0.8625  0.3079
 
              Baa    -0.0055    -2.785    -0.994    -0.929  0.0768  0.3995  0.9135
    26 F(19)  Bbb    -0.0047    -2.369    -0.845    -0.790  0.9413  0.2730 -0.1985
              Bcc     0.0103     5.154     1.839     1.719 -0.3287  0.8751 -0.3551
 
              Baa    -0.0007    -0.094    -0.034    -0.031  0.7078  0.6124  0.3522
    27 C(13)  Bbb    -0.0006    -0.078    -0.028    -0.026 -0.2212 -0.2813  0.9338
              Bcc     0.0013     0.173     0.062     0.058 -0.6709  0.7388  0.0637
 
              Baa    -0.0017    -0.848    -0.303    -0.283  0.6517  0.3745  0.6595
    28 F(19)  Bbb    -0.0014    -0.706    -0.252    -0.236 -0.4911 -0.4543  0.7433
              Bcc     0.0031     1.555     0.555     0.519 -0.5780  0.8083  0.1121
 
              Baa    -0.0006    -0.315    -0.112    -0.105  0.4795  0.8397  0.2550
    29 F(19)  Bbb    -0.0005    -0.227    -0.081    -0.076 -0.0969 -0.2381  0.9664
              Bcc     0.0011     0.542     0.193     0.181  0.8722 -0.4881 -0.0328
 
              Baa    -0.0004     0.029     0.010     0.010  0.4054  0.2263  0.8857
    30 O(17)  Bbb    -0.0003     0.024     0.009     0.008  0.6226  0.6411 -0.4487
              Bcc     0.0007    -0.053    -0.019    -0.018 -0.6694  0.7333  0.1191
 
              Baa    -0.0004    -0.057    -0.020    -0.019  0.3584  0.3945  0.8461
    31 C(13)  Bbb    -0.0004    -0.053    -0.019    -0.018  0.7344  0.4404 -0.5164
              Bcc     0.0008     0.110     0.039     0.037 -0.5764  0.8065 -0.1319
 
              Baa    -0.0005    -0.253    -0.090    -0.084  0.4389  0.6564  0.6136
    32 F(19)  Bbb    -0.0005    -0.245    -0.088    -0.082 -0.5893 -0.3052  0.7481
              Bcc     0.0010     0.499     0.178     0.166 -0.6783  0.6899 -0.2528
 
              Baa    -0.0006    -0.319    -0.114    -0.106  0.0458  0.1583  0.9863
    33 F(19)  Bbb    -0.0006    -0.299    -0.107    -0.100  0.9073  0.4066 -0.1074
              Bcc     0.0012     0.618     0.221     0.206 -0.4180  0.8998 -0.1250
 
              Baa    -0.0003    -0.128    -0.046    -0.043 -0.0941  0.1151  0.9889
    34 F(19)  Bbb    -0.0002    -0.124    -0.044    -0.041  0.8296  0.5581  0.0140
              Bcc     0.0005     0.252     0.090     0.084 -0.5503  0.8217 -0.1480
 
              Baa    -0.1253   -16.815    -6.000    -5.609 -0.1534 -0.1237  0.9804
    35 C(13)  Bbb     0.0413     5.546     1.979     1.850  0.7517 -0.6586  0.0345
              Bcc     0.0840    11.269     4.021     3.759  0.6414  0.7423  0.1940
 
              Baa    -0.4512    32.650    11.650    10.891  0.8758 -0.4806  0.0441
    36 O(17)  Bbb    -0.4447    32.179    11.482    10.734  0.4694  0.8695  0.1539
              Bcc     0.8959   -64.829   -23.133   -21.625 -0.1123 -0.1141  0.9871
 
              Baa    -0.0696    -2.685    -0.958    -0.896 -0.1812 -0.1451  0.9727
    37 N(14)  Bbb     0.0322     1.241     0.443     0.414  0.1450  0.9743  0.1724
              Bcc     0.0374     1.444     0.515     0.482  0.9727 -0.1723  0.1555
 
              Baa    -0.0030    -0.397    -0.142    -0.133 -0.3396 -0.4701  0.8146
    38 C(13)  Bbb    -0.0014    -0.182    -0.065    -0.061  0.7309  0.4133  0.5432
              Bcc     0.0043     0.580     0.207     0.193 -0.5920  0.7799  0.2033
 
              Baa    -0.0038    -0.505    -0.180    -0.168  0.0022 -0.3935  0.9193
    39 C(13)  Bbb    -0.0004    -0.052    -0.019    -0.017  0.7029  0.6545  0.2785
              Bcc     0.0041     0.557     0.199     0.186  0.7113 -0.6456 -0.2781
 
              Baa    -0.0009    -0.123    -0.044    -0.041  0.1315 -0.1796  0.9749
    40 C(13)  Bbb    -0.0005    -0.060    -0.022    -0.020  0.0399  0.9836  0.1758
              Bcc     0.0014     0.183     0.065     0.061  0.9905 -0.0158 -0.1365
 
              Baa    -0.0007    -0.090    -0.032    -0.030  0.0027 -0.3576  0.9339
    41 C(13)  Bbb    -0.0004    -0.055    -0.020    -0.018 -0.2536  0.9031  0.3466
              Bcc     0.0011     0.145     0.052     0.048  0.9673  0.2377  0.0883
 
              Baa    -0.0008    -0.379    -0.135    -0.126  0.1051 -0.1736  0.9792
    42 F(19)  Bbb    -0.0005    -0.272    -0.097    -0.091 -0.3483  0.9159  0.1997
              Bcc     0.0013     0.651     0.232     0.217  0.9315  0.3621 -0.0358
 
              Baa    -0.0008    -0.425    -0.152    -0.142 -0.2402 -0.4332  0.8687
    43 F(19)  Bbb    -0.0006    -0.284    -0.101    -0.095 -0.3513  0.8730  0.3382
              Bcc     0.0014     0.708     0.253     0.236  0.9049  0.2240  0.3619
 
              Baa    -0.0003    -0.043    -0.015    -0.014 -0.0238 -0.1401  0.9899
    44 C(13)  Bbb    -0.0003    -0.035    -0.012    -0.012 -0.2275  0.9649  0.1311
              Bcc     0.0006     0.078     0.028     0.026  0.9735  0.2221  0.0548
 
              Baa    -0.0003    -0.131    -0.047    -0.044  0.1356 -0.1236  0.9830
    45 F(19)  Bbb    -0.0002    -0.113    -0.040    -0.038 -0.2315  0.9608  0.1527
              Bcc     0.0005     0.243     0.087     0.081  0.9633  0.2483 -0.1017
 
              Baa    -0.0003    -0.126    -0.045    -0.042 -0.0844 -0.2295  0.9696
    46 F(19)  Bbb    -0.0002    -0.110    -0.039    -0.037 -0.3451  0.9196  0.1876
              Bcc     0.0005     0.236     0.084     0.079  0.9348  0.3188  0.1568
 
              Baa    -0.0003     0.020     0.007     0.007 -0.0991 -0.1851  0.9777
    47 O(17)  Bbb    -0.0002     0.015     0.005     0.005 -0.1315  0.9764  0.1716
              Bcc     0.0005    -0.035    -0.012    -0.012  0.9864  0.1115  0.1211
 
              Baa    -0.0002    -0.023    -0.008    -0.008 -0.1217 -0.1407  0.9825
    48 C(13)  Bbb    -0.0001    -0.020    -0.007    -0.007 -0.1414  0.9823  0.1231
              Bcc     0.0003     0.042     0.015     0.014  0.9824  0.1239  0.1395
 
              Baa    -0.0001    -0.070    -0.025    -0.023 -0.0144 -0.1217  0.9925
    49 F(19)  Bbb    -0.0001    -0.062    -0.022    -0.021 -0.1882  0.9751  0.1168
              Bcc     0.0003     0.132     0.047     0.044  0.9820  0.1851  0.0369
 
              Baa    -0.0002    -0.077    -0.027    -0.026 -0.2334 -0.1677  0.9578
    50 F(19)  Bbb    -0.0001    -0.068    -0.024    -0.023 -0.2068  0.9711  0.1196
              Bcc     0.0003     0.145     0.052     0.048  0.9501  0.1701  0.2613
 
              Baa    -0.0001    -0.070    -0.025    -0.023 -0.1407 -0.1387  0.9803
    51 F(19)  Bbb    -0.0001    -0.062    -0.022    -0.021 -0.0414  0.9901  0.1341
              Bcc     0.0003     0.132     0.047     0.044  0.9892  0.0217  0.1450
 
              Baa    -0.0059    -3.139    -1.120    -1.047 -0.2760 -0.3245  0.9047
    52 H(1)   Bbb    -0.0012    -0.636    -0.227    -0.212 -0.5797  0.8070  0.1126
              Bcc     0.0071     3.775     1.347     1.259  0.7667  0.4934  0.4108
 
              Baa    -0.0047    -2.493    -0.889    -0.831 -0.1271 -0.4008  0.9073
    53 H(1)   Bbb    -0.0008    -0.410    -0.146    -0.137  0.8598  0.4115  0.3022
              Bcc     0.0054     2.903     1.036     0.968 -0.4945  0.8186  0.2923
 
              Baa    -0.0045    -2.375    -0.847    -0.792  0.7492  0.1569  0.6435
    54 H(1)   Bbb     0.0000     0.024     0.009     0.008 -0.3665  0.9075  0.2055
              Bcc     0.0044     2.351     0.839     0.784 -0.5517 -0.3898  0.7374
 
              Baa    -0.0039    -2.099    -0.749    -0.700 -0.3758  0.5430  0.7509
    55 H(1)   Bbb     0.0006     0.316     0.113     0.105  0.8323  0.5540  0.0159
              Bcc     0.0033     1.783     0.636     0.595  0.4074 -0.6310  0.6602
 
              Baa    -0.0014    -0.753    -0.269    -0.251 -0.4800  0.3331  0.8116
    56 H(1)   Bbb    -0.0008    -0.446    -0.159    -0.149  0.6568 -0.4769  0.5841
              Bcc     0.0022     1.199     0.428     0.400  0.5816  0.8134  0.0101
 
              Baa    -0.0013    -0.687    -0.245    -0.229  0.9592 -0.2592  0.1127
    57 H(1)   Bbb    -0.0003    -0.181    -0.065    -0.060  0.0578  0.5703  0.8194
              Bcc     0.0016     0.869     0.310     0.290  0.2767  0.7795 -0.5620
 
              Baa    -0.0097    -5.160    -1.841    -1.721 -0.2914  0.0987  0.9515
    58 H(1)   Bbb    -0.0009    -0.463    -0.165    -0.154  0.9564  0.0490  0.2879
              Bcc     0.0105     5.623     2.006     1.875 -0.0182  0.9939 -0.1087
 
              Baa    -0.0099    -5.284    -1.885    -1.762 -0.3464  0.0206  0.9379
    59 H(1)   Bbb    -0.0049    -2.623    -0.936    -0.875 -0.0758  0.9959 -0.0499
              Bcc     0.0148     7.907     2.821     2.638  0.9350  0.0884  0.3434
 
              Baa    -0.0087    -4.620    -1.649    -1.541  0.7674  0.1812  0.6151
    60 H(1)   Bbb    -0.0007    -0.357    -0.127    -0.119 -0.3537  0.9197  0.1704
              Bcc     0.0093     4.978     1.776     1.660 -0.5348 -0.3483  0.7698
 
              Baa    -0.0087    -4.632    -1.653    -1.545 -0.1887  0.8016 -0.5673
    61 H(1)   Bbb     0.0018     0.970     0.346     0.323  0.9473 -0.0038 -0.3204
              Bcc     0.0069     3.662     1.307     1.222  0.2590  0.5978  0.7586
 
              Baa    -0.0027    -1.439    -0.514    -0.480  0.5010  0.8569  0.1211
    62 H(1)   Bbb    -0.0005    -0.257    -0.092    -0.086  0.6712 -0.4730  0.5707
              Bcc     0.0032     1.696     0.605     0.566 -0.5463  0.2047  0.8122
 
              Baa    -0.0028    -1.477    -0.527    -0.493  0.0547  0.7967 -0.6019
    63 H(1)   Bbb    -0.0015    -0.789    -0.282    -0.263  0.1249  0.5926  0.7958
              Bcc     0.0042     2.266     0.809     0.756  0.9907 -0.1187 -0.0671
 
              Baa    -0.0019    -1.034    -0.369    -0.345 -0.3832 -0.1817  0.9056
    64 H(1)   Bbb     0.0005     0.252     0.090     0.084 -0.4592  0.8882 -0.0162
              Bcc     0.0015     0.783     0.279     0.261  0.8014  0.4221  0.4238
 
              Baa    -0.0030    -1.621    -0.578    -0.541 -0.3834 -0.3181  0.8671
    65 H(1)   Bbb    -0.0018    -0.939    -0.335    -0.313  0.1332  0.9100  0.3927
              Bcc     0.0048     2.560     0.913     0.854  0.9139 -0.2661  0.3065
 
              Baa    -0.0015    -0.821    -0.293    -0.274  0.3333 -0.0098  0.9428
    66 H(1)   Bbb     0.0000    -0.026    -0.009    -0.009 -0.1586  0.9851  0.0663
              Bcc     0.0016     0.846     0.302     0.282  0.9294  0.1716 -0.3267
 
              Baa    -0.0018    -0.974    -0.348    -0.325  0.3809  0.1657  0.9096
    67 H(1)   Bbb    -0.0012    -0.629    -0.224    -0.210 -0.0623  0.9862 -0.1536
              Bcc     0.0030     1.603     0.572     0.535  0.9225 -0.0019 -0.3859
 
              Baa    -0.0006    -0.309    -0.110    -0.103  0.2738  0.0299  0.9613
    68 H(1)   Bbb    -0.0004    -0.211    -0.075    -0.070 -0.1257  0.9921  0.0050
              Bcc     0.0010     0.520     0.186     0.174  0.9536  0.1222 -0.2753
 
              Baa    -0.0007    -0.382    -0.136    -0.127  0.0160 -0.0024  0.9999
    69 H(1)   Bbb    -0.0004    -0.197    -0.070    -0.066 -0.0615  0.9981  0.0034
              Bcc     0.0011     0.578     0.206     0.193  0.9980  0.0615 -0.0158
 

 ---------------------------------------------------------------------------------

 No NMR shielding tensors so no spin-rotation constants.
 Leave Link  601 at Sun Feb  2 05:08:08 2025, MaxMem=  5368709120 cpu:         6.9
 (Enter /home/k0335/k033513/app/g09/l9999.exe)
 1\1\GINC-C18U06N3\SP\UCAM-B3LYP\6-31G(d,p)\C21H18F21N3O6(1+,2)\K033513
 \02-Feb-2025\0\\#p CAM-B3LYP/6-31G(d,p) SCRF=(PCM,Solvent=Generic,Read
 ) NoSymm out=wfn\\Title TAIC0_pos\\1,2\O,0,-1.38365,1.893238,0.446146\
 C,0,-0.471669,1.063162,0.443179\N,0,0.832401,1.41655,0.714859\C,0,1.13
 3829,2.826155,0.960154\C,0,1.408642,3.579207,-0.347719\C,0,1.967607,4.
 989863,-0.144472\C,0,1.09505,5.975191,0.630972\F,0,0.923653,5.508219,1
 .899133\F,0,1.816097,7.130629,0.765596\C,0,-0.261896,6.296672,-0.02314
 5\F,0,-1.019273,5.176876,-0.105817\F,0,-0.06663,6.743054,-1.289466\O,0
 ,-0.984756,7.250893,0.716291\C,0,-1.99243,7.794608,-0.084837\F,0,-2.88
 1256,8.418376,0.716957\F,0,-2.648568,6.8545,-0.790047\F,0,-1.470595,8.
 711918,-0.922157\C,0,1.885447,0.529989,0.646172\O,0,3.058729,0.909088,
 0.70038\N,0,1.556915,-0.799839,0.492673\C,0,2.643203,-1.780031,0.48685
 2\C,0,3.214455,-1.975621,-0.92342\C,0,4.553327,-2.723103,-0.964794\C,0
 ,4.49618,-4.144401,-0.410553\F,0,3.480182,-4.815923,-1.014145\F,0,4.18
 2972,-4.076014,0.910695\C,0,5.832297,-4.905085,-0.61659\F,0,6.154487,-
 4.855302,-1.944382\F,0,6.854422,-4.265135,0.011563\O,0,5.903371,-6.267
 975,-0.281371\C,0,5.491185,-6.484624,1.035098\F,0,5.96076,-5.540977,1.
 86967\F,0,4.148445,-6.519193,1.089993\F,0,5.961839,-7.681843,1.439424\
 C,0,0.277282,-1.237511,0.222449\O,0,0.024533,-2.42908,0.036204\N,0,-0.
 700989,-0.266988,0.160616\C,0,-2.072807,-0.680777,-0.135384\C,0,-2.847
 784,-1.011084,1.145644\C,0,-4.362032,-1.149793,0.942199\C,0,-4.767234,
 -2.300259,0.021684\F,0,-4.157452,-3.43964,0.447712\F,0,-4.28643,-2.052
 927,-1.229773\C,0,-6.294414,-2.503837,-0.042376\F,0,-6.770996,-2.78563
 5,1.197428\F,0,-6.597372,-3.553799,-0.842854\O,0,-6.955408,-1.345737,-
 0.49851\C,0,-8.255476,-1.678408,-0.892536\F,0,-8.875054,-2.456522,0.01
 2817\F,0,-8.239755,-2.287842,-2.093265\F,0,-8.960326,-0.532319,-1.0157
 28\H,0,2.005366,2.896488,1.62211\H,0,0.290161,3.281778,1.489364\H,0,2.
 140981,3.01436,-0.939962\H,0,0.501102,3.612396,-0.961127\H,0,2.929922,
 4.906739,0.377226\H,0,2.2008,5.421197,-1.125895\H,0,2.265243,-2.731613
 ,0.876496\H,0,3.433062,-1.441606,1.168484\H,0,3.367732,-0.995534,-1.39
 4238\H,0,2.478702,-2.498732,-1.54793\H,0,4.876373,-2.754915,-2.012393\
 H,0,5.299302,-2.144716,-0.407195\H,0,-2.57866,0.123889,-0.681845\H,0,-
 2.048127,-1.552558,-0.797547\H,0,-2.682778,-0.218434,1.886636\H,0,-2.4
 46893,-1.929478,1.59234\H,0,-4.812343,-1.306536,1.929863\H,0,-4.753004
 ,-0.203689,0.549723\\Version=ES64L-G09RevD.01\HF=-3522.0903572\S2=0.77
 5487\S2-1=0.\S2A=0.750461\RMSD=3.805e-09\Dipole=3.3965875,0.5125088,0.
 3060032\Quadrupole=9.1832931,-12.4848105,3.3015174,2.1498366,-7.397686
 2,-4.8890409\PG=C01 [X(C21H18F21N3O6)]\\@

 Writing a WFN file to "wang5/TAIC0/TAIC0_pos.wfn"


 ALL MY ATTEMPTS TO ADAPT THE THEORETICAL FOUNDATIONS OF PHYSICS
 TO THESE NEW NOTIONS FAILED COMPLETELY. IT WAS AS IF THE GROUND HAD
 BEEN PULLED OUT FROM UNDER ONE WITH NO FIRM FOUNDATION TO BE SEEN ANYWHERE,
 UPON WHICH ONE COULD HAVE BUILT.  -- A.EINSTEIN
 Job cpu time:       0 days  2 hours 27 minutes 29.6 seconds.
 File lengths (MBytes):  RWF=   1165 Int=      0 D2E=      0 Chk=     36 Scr=      1
 Normal termination of Gaussian 09 at Sun Feb  2 05:08:08 2025.
