 Entering Gaussian System, Link 0=g09
 Initial command:
 /home/k0335/k033513/app/g09/l1.exe "/home/k0335/k033513/app/g09/scratch/Gau-468362.inp" -scrdir="/home/k0335/k033513/app/g09/scratch/"
 Default is to use a total of  36 processors:
                               36 via shared-memory
                                1 via Linda
 Entering Link 1 = /home/k0335/k033513/app/g09/l1.exe PID=    468363.
  
 Copyright (c) 1988,1990,1992,1993,1995,1998,2003,2009,2013,
            Gaussian, Inc.  All Rights Reserved.
  
 This is part of the Gaussian(R) 09 program.  It is based on
 the Gaussian(R) 03 system (copyright 2003, Gaussian, Inc.),
 the Gaussian(R) 98 system (copyright 1998, Gaussian, Inc.),
 the Gaussian(R) 94 system (copyright 1995, Gaussian, Inc.),
 the Gaussian 92(TM) system (copyright 1992, Gaussian, Inc.),
 the Gaussian 90(TM) system (copyright 1990, Gaussian, Inc.),
 the Gaussian 88(TM) system (copyright 1988, Gaussian, Inc.),
 the Gaussian 86(TM) system (copyright 1986, Carnegie Mellon
 University), and the Gaussian 82(TM) system (copyright 1983,
 Carnegie Mellon University). Gaussian is a federally registered
 trademark of Gaussian, Inc.
  
 This software contains proprietary and confidential information,
 including trade secrets, belonging to Gaussian, Inc.
  
 This software is provided under written license and may be
 used, copied, transmitted, or stored only in accord with that
 written license.
  
 The following legend is applicable only to US Government
 contracts under FAR:
  
                    RESTRICTED RIGHTS LEGEND
  
 Use, reproduction and disclosure by the US Government is
 subject to restrictions as set forth in subparagraphs (a)
 and (c) of the Commercial Computer Software - Restricted
 Rights clause in FAR 52.227-19.
  
 Gaussian, Inc.
 340 Quinnipiac St., Bldg. 40, Wallingford CT 06492
  
  
 ---------------------------------------------------------------
 Warning -- This program may not be used in any manner that
 competes with the business of Gaussian, Inc. or will provide
 assistance to any competitor of Gaussian, Inc.  The licensee
 of this program is prohibited from giving any competitor of
 Gaussian, Inc. access to this program.  By using this program,
 the user acknowledges that Gaussian, Inc. is engaged in the
 business of creating and licensing software in the field of
 computational chemistry and represents and warrants to the
 licensee that it is not a competitor of Gaussian, Inc. and that
 it will not use this program in any manner prohibited above.
 ---------------------------------------------------------------
  

 Cite this work as:
 Gaussian 09, Revision D.01,
 M. J. Frisch, G. W. Trucks, H. B. Schlegel, G. E. Scuseria, 
 M. A. Robb, J. R. Cheeseman, G. Scalmani, V. Barone, B. Mennucci, 
 G. A. Petersson, H. Nakatsuji, M. Caricato, X. Li, H. P. Hratchian, 
 A. F. Izmaylov, J. Bloino, G. Zheng, J. L. Sonnenberg, M. Hada, 
 M. Ehara, K. Toyota, R. Fukuda, J. Hasegawa, M. Ishida, T. Nakajima, 
 Y. Honda, O. Kitao, H. Nakai, T. Vreven, J. A. Montgomery, Jr., 
 J. E. Peralta, F. Ogliaro, M. Bearpark, J. J. Heyd, E. Brothers, 
 K. N. Kudin, V. N. Staroverov, T. Keith, R. Kobayashi, J. Normand, 
 K. Raghavachari, A. Rendell, J. C. Burant, S. S. Iyengar, J. Tomasi, 
 M. Cossi, N. Rega, J. M. Millam, M. Klene, J. E. Knox, J. B. Cross, 
 V. Bakken, C. Adamo, J. Jaramillo, R. Gomperts, R. E. Stratmann, 
 O. Yazyev, A. J. Austin, R. Cammi, C. Pomelli, J. W. Ochterski, 
 R. L. Martin, K. Morokuma, V. G. Zakrzewski, G. A. Voth, 
 P. Salvador, J. J. Dannenberg, S. Dapprich, A. D. Daniels, 
 O. Farkas, J. B. Foresman, J. V. Ortiz, J. Cioslowski, 
 and D. J. Fox, Gaussian, Inc., Wallingford CT, 2013.
 
 ******************************************
 Gaussian 09:  ES64L-G09RevD.01 24-Apr-2013
                 2-Feb-2025 
 ******************************************
 %nprocshared=24
 Will use up to   24 processors via shared memory.
 %mem=40GB
 %rwf=wang5/TAIC0/TAIC0_neu.rwf
 %nosave
 %chk=wang5/TAIC0/TAIC0_neu.chk
 ----------------------------------------------------------------------
 #p CAM-B3LYP/6-31G(d,p) SCRF=(PCM,Solvent=Generic,Read) NoSymm out=wfn
 ----------------------------------------------------------------------
 1/38=1,40=2/1;
 2/12=2,15=1,17=6,18=5,40=1/2;
 3/5=1,6=6,7=101,11=2,16=1,25=1,30=1,70=2203,72=-2,74=-40/1,2,3;
 4//1;
 5/5=2,38=5/2;
 6/7=2,8=2,9=2,10=2,28=1/1;
 99/5=1,6=100,9=1/99;
 Leave Link    1 at Sun Feb  2 04:59:34 2025, MaxMem=  5368709120 cpu:         0.8
 (Enter /home/k0335/k033513/app/g09/l101.exe)
 ---------------
 Title TAIC0_neu
 ---------------
 Symbolic Z-matrix:
 Charge =  0 Multiplicity = 1
 O                    -1.38365   1.89324   0.44615 
 C                    -0.47167   1.06316   0.44318 
 N                     0.8324    1.41655   0.71486 
 C                     1.13383   2.82616   0.96015 
 C                     1.40864   3.57921  -0.34772 
 C                     1.96761   4.98986  -0.14447 
 C                     1.09505   5.97519   0.63097 
 F                     0.92365   5.50822   1.89913 
 F                     1.8161    7.13063   0.7656 
 C                    -0.2619    6.29667  -0.02315 
 F                    -1.01927   5.17688  -0.10582 
 F                    -0.06663   6.74305  -1.28947 
 O                    -0.98476   7.25089   0.71629 
 C                    -1.99243   7.79461  -0.08484 
 F                    -2.88126   8.41838   0.71696 
 F                    -2.64857   6.8545   -0.79005 
 F                    -1.4706    8.71192  -0.92216 
 C                     1.88545   0.52999   0.64617 
 O                     3.05873   0.90909   0.70038 
 N                     1.55692  -0.79984   0.49267 
 C                     2.6432   -1.78003   0.48685 
 C                     3.21446  -1.97562  -0.92342 
 C                     4.55333  -2.7231   -0.96479 
 C                     4.49618  -4.1444   -0.41055 
 F                     3.48018  -4.81592  -1.01415 
 F                     4.18297  -4.07601   0.9107 
 C                     5.8323   -4.90509  -0.61659 
 F                     6.15449  -4.8553   -1.94438 
 F                     6.85442  -4.26513   0.01156 
 O                     5.90337  -6.26797  -0.28137 
 C                     5.49118  -6.48462   1.0351 
 F                     5.96076  -5.54098   1.86967 
 F                     4.14844  -6.51919   1.08999 
 F                     5.96184  -7.68184   1.43942 
 C                     0.27728  -1.23751   0.22245 
 O                     0.02453  -2.42908   0.0362 
 N                    -0.70099  -0.26699   0.16062 
 C                    -2.07281  -0.68078  -0.13538 
 C                    -2.84778  -1.01108   1.14564 
 C                    -4.36203  -1.14979   0.9422 
 C                    -4.76723  -2.30026   0.02168 
 F                    -4.15745  -3.43964   0.44771 
 F                    -4.28643  -2.05293  -1.22977 
 C                    -6.29441  -2.50384  -0.04238 
 F                    -6.771    -2.78564   1.19743 
 F                    -6.59737  -3.5538   -0.84285 
 O                    -6.95541  -1.34574  -0.49851 
 C                    -8.25548  -1.67841  -0.89254 
 F                    -8.87505  -2.45652   0.01282 
 F                    -8.23976  -2.28784  -2.09327 
 F                    -8.96033  -0.53232  -1.01573 
 H                     2.00537   2.89649   1.62211 
 H                     0.29016   3.28178   1.48936 
 H                     2.14098   3.01436  -0.93996 
 H                     0.5011    3.6124   -0.96113 
 H                     2.92992   4.90674   0.37723 
 H                     2.2008    5.4212   -1.1259 
 H                     2.26524  -2.73161   0.8765 
 H                     3.43306  -1.44161   1.16848 
 H                     3.36773  -0.99553  -1.39424 
 H                     2.4787   -2.49873  -1.54793 
 H                     4.87637  -2.75492  -2.01239 
 H                     5.2993   -2.14472  -0.4072 
 H                    -2.57866   0.12389  -0.68185 
 H                    -2.04813  -1.55256  -0.79755 
 H                    -2.68278  -0.21843   1.88664 
 H                    -2.44689  -1.92948   1.59234 
 H                    -4.81234  -1.30654   1.92986 
 H                    -4.753    -0.20369   0.54972 
 
 NAtoms=     69 NQM=       69 NQMF=       0 NMMI=      0 NMMIF=      0
                NMic=       0 NMicF=      0.
                    Isotopes and Nuclear Properties:
 (Nuclear quadrupole moments (NQMom) in fm**2, nuclear magnetic moments (NMagM)
  in nuclear magnetons)

  Atom         1           2           3           4           5           6           7           8           9          10
 IAtWgt=          16          12          14          12          12          12          12          19          19          12
 AtmWgt=  15.9949146  12.0000000  14.0030740  12.0000000  12.0000000  12.0000000  12.0000000  18.9984033  18.9984033  12.0000000
 NucSpn=           0           0           2           0           0           0           0           1           1           0
 AtZEff=   0.0000000   0.0000000   0.0000000   0.0000000   0.0000000   0.0000000   0.0000000   0.0000000   0.0000000   0.0000000
 NQMom=    0.0000000   0.0000000   2.0440000   0.0000000   0.0000000   0.0000000   0.0000000   0.0000000   0.0000000   0.0000000
 NMagM=    0.0000000   0.0000000   0.4037610   0.0000000   0.0000000   0.0000000   0.0000000   2.6288670   2.6288670   0.0000000
 AtZNuc=   8.0000000   6.0000000   7.0000000   6.0000000   6.0000000   6.0000000   6.0000000   9.0000000   9.0000000   6.0000000

  Atom        11          12          13          14          15          16          17          18          19          20
 IAtWgt=          19          19          16          12          19          19          19          12          16          14
 AtmWgt=  18.9984033  18.9984033  15.9949146  12.0000000  18.9984033  18.9984033  18.9984033  12.0000000  15.9949146  14.0030740
 NucSpn=           1           1           0           0           1           1           1           0           0           2
 AtZEff=   0.0000000   0.0000000   0.0000000   0.0000000   0.0000000   0.0000000   0.0000000   0.0000000   0.0000000   0.0000000
 NQMom=    0.0000000   0.0000000   0.0000000   0.0000000   0.0000000   0.0000000   0.0000000   0.0000000   0.0000000   2.0440000
 NMagM=    2.6288670   2.6288670   0.0000000   0.0000000   2.6288670   2.6288670   2.6288670   0.0000000   0.0000000   0.4037610
 AtZNuc=   9.0000000   9.0000000   8.0000000   6.0000000   9.0000000   9.0000000   9.0000000   6.0000000   8.0000000   7.0000000

  Atom        21          22          23          24          25          26          27          28          29          30
 IAtWgt=          12          12          12          12          19          19          12          19          19          16
 AtmWgt=  12.0000000  12.0000000  12.0000000  12.0000000  18.9984033  18.9984033  12.0000000  18.9984033  18.9984033  15.9949146
 NucSpn=           0           0           0           0           1           1           0           1           1           0
 AtZEff=   0.0000000   0.0000000   0.0000000   0.0000000   0.0000000   0.0000000   0.0000000   0.0000000   0.0000000   0.0000000
 NQMom=    0.0000000   0.0000000   0.0000000   0.0000000   0.0000000   0.0000000   0.0000000   0.0000000   0.0000000   0.0000000
 NMagM=    0.0000000   0.0000000   0.0000000   0.0000000   2.6288670   2.6288670   0.0000000   2.6288670   2.6288670   0.0000000
 AtZNuc=   6.0000000   6.0000000   6.0000000   6.0000000   9.0000000   9.0000000   6.0000000   9.0000000   9.0000000   8.0000000

  Atom        31          32          33          34          35          36          37          38          39          40
 IAtWgt=          12          19          19          19          12          16          14          12          12          12
 AtmWgt=  12.0000000  18.9984033  18.9984033  18.9984033  12.0000000  15.9949146  14.0030740  12.0000000  12.0000000  12.0000000
 NucSpn=           0           1           1           1           0           0           2           0           0           0
 AtZEff=   0.0000000   0.0000000   0.0000000   0.0000000   0.0000000   0.0000000   0.0000000   0.0000000   0.0000000   0.0000000
 NQMom=    0.0000000   0.0000000   0.0000000   0.0000000   0.0000000   0.0000000   2.0440000   0.0000000   0.0000000   0.0000000
 NMagM=    0.0000000   2.6288670   2.6288670   2.6288670   0.0000000   0.0000000   0.4037610   0.0000000   0.0000000   0.0000000
 AtZNuc=   6.0000000   9.0000000   9.0000000   9.0000000   6.0000000   8.0000000   7.0000000   6.0000000   6.0000000   6.0000000

  Atom        41          42          43          44          45          46          47          48          49          50
 IAtWgt=          12          19          19          12          19          19          16          12          19          19
 AtmWgt=  12.0000000  18.9984033  18.9984033  12.0000000  18.9984033  18.9984033  15.9949146  12.0000000  18.9984033  18.9984033
 NucSpn=           0           1           1           0           1           1           0           0           1           1
 AtZEff=   0.0000000   0.0000000   0.0000000   0.0000000   0.0000000   0.0000000   0.0000000   0.0000000   0.0000000   0.0000000
 NQMom=    0.0000000   0.0000000   0.0000000   0.0000000   0.0000000   0.0000000   0.0000000   0.0000000   0.0000000   0.0000000
 NMagM=    0.0000000   2.6288670   2.6288670   0.0000000   2.6288670   2.6288670   0.0000000   0.0000000   2.6288670   2.6288670
 AtZNuc=   6.0000000   9.0000000   9.0000000   6.0000000   9.0000000   9.0000000   8.0000000   6.0000000   9.0000000   9.0000000

  Atom        51          52          53          54          55          56          57          58          59          60
 IAtWgt=          19           1           1           1           1           1           1           1           1           1
 AtmWgt=  18.9984033   1.0078250   1.0078250   1.0078250   1.0078250   1.0078250   1.0078250   1.0078250   1.0078250   1.0078250
 NucSpn=           1           1           1           1           1           1           1           1           1           1
 AtZEff=   0.0000000   0.0000000   0.0000000   0.0000000   0.0000000   0.0000000   0.0000000   0.0000000   0.0000000   0.0000000
 NQMom=    0.0000000   0.0000000   0.0000000   0.0000000   0.0000000   0.0000000   0.0000000   0.0000000   0.0000000   0.0000000
 NMagM=    2.6288670   2.7928460   2.7928460   2.7928460   2.7928460   2.7928460   2.7928460   2.7928460   2.7928460   2.7928460
 AtZNuc=   9.0000000   1.0000000   1.0000000   1.0000000   1.0000000   1.0000000   1.0000000   1.0000000   1.0000000   1.0000000

  Atom        61          62          63          64          65          66          67          68          69
 IAtWgt=           1           1           1           1           1           1           1           1           1
 AtmWgt=   1.0078250   1.0078250   1.0078250   1.0078250   1.0078250   1.0078250   1.0078250   1.0078250   1.0078250
 NucSpn=           1           1           1           1           1           1           1           1           1
 AtZEff=   0.0000000   0.0000000   0.0000000   0.0000000   0.0000000   0.0000000   0.0000000   0.0000000   0.0000000
 NQMom=    0.0000000   0.0000000   0.0000000   0.0000000   0.0000000   0.0000000   0.0000000   0.0000000   0.0000000
 NMagM=    2.7928460   2.7928460   2.7928460   2.7928460   2.7928460   2.7928460   2.7928460   2.7928460   2.7928460
 AtZNuc=   1.0000000   1.0000000   1.0000000   1.0000000   1.0000000   1.0000000   1.0000000   1.0000000   1.0000000
 Leave Link  101 at Sun Feb  2 04:59:34 2025, MaxMem=  5368709120 cpu:         0.9
 (Enter /home/k0335/k033513/app/g09/l202.exe)
 Symmetry turned off by external request.
 Stoichiometry    C21H18F21N3O6
 Framework group  C1[X(C21H18F21N3O6)]
 Deg. of freedom   201
 Full point group                 C1      NOp   1
                          Input orientation:                          
 ---------------------------------------------------------------------
 Center     Atomic      Atomic             Coordinates (Angstroms)
 Number     Number       Type             X           Y           Z
 ---------------------------------------------------------------------
      1          8           0       -1.383650    1.893238    0.446146
      2          6           0       -0.471669    1.063162    0.443179
      3          7           0        0.832401    1.416550    0.714859
      4          6           0        1.133829    2.826155    0.960154
      5          6           0        1.408642    3.579207   -0.347719
      6          6           0        1.967607    4.989863   -0.144472
      7          6           0        1.095050    5.975191    0.630972
      8          9           0        0.923653    5.508219    1.899133
      9          9           0        1.816097    7.130629    0.765596
     10          6           0       -0.261896    6.296672   -0.023145
     11          9           0       -1.019273    5.176876   -0.105817
     12          9           0       -0.066630    6.743054   -1.289466
     13          8           0       -0.984756    7.250893    0.716291
     14          6           0       -1.992430    7.794608   -0.084837
     15          9           0       -2.881256    8.418376    0.716957
     16          9           0       -2.648568    6.854500   -0.790047
     17          9           0       -1.470595    8.711918   -0.922157
     18          6           0        1.885447    0.529989    0.646172
     19          8           0        3.058729    0.909088    0.700380
     20          7           0        1.556915   -0.799839    0.492673
     21          6           0        2.643203   -1.780031    0.486852
     22          6           0        3.214455   -1.975621   -0.923420
     23          6           0        4.553327   -2.723103   -0.964794
     24          6           0        4.496180   -4.144401   -0.410553
     25          9           0        3.480182   -4.815923   -1.014145
     26          9           0        4.182972   -4.076014    0.910695
     27          6           0        5.832297   -4.905085   -0.616590
     28          9           0        6.154487   -4.855302   -1.944382
     29          9           0        6.854422   -4.265135    0.011563
     30          8           0        5.903371   -6.267975   -0.281371
     31          6           0        5.491185   -6.484624    1.035098
     32          9           0        5.960760   -5.540977    1.869670
     33          9           0        4.148445   -6.519193    1.089993
     34          9           0        5.961839   -7.681843    1.439424
     35          6           0        0.277282   -1.237511    0.222449
     36          8           0        0.024533   -2.429080    0.036204
     37          7           0       -0.700989   -0.266988    0.160616
     38          6           0       -2.072807   -0.680777   -0.135384
     39          6           0       -2.847784   -1.011084    1.145644
     40          6           0       -4.362032   -1.149793    0.942199
     41          6           0       -4.767234   -2.300259    0.021684
     42          9           0       -4.157452   -3.439640    0.447712
     43          9           0       -4.286430   -2.052927   -1.229773
     44          6           0       -6.294414   -2.503837   -0.042376
     45          9           0       -6.770996   -2.785635    1.197428
     46          9           0       -6.597372   -3.553799   -0.842854
     47          8           0       -6.955408   -1.345737   -0.498510
     48          6           0       -8.255476   -1.678408   -0.892536
     49          9           0       -8.875054   -2.456522    0.012817
     50          9           0       -8.239755   -2.287842   -2.093265
     51          9           0       -8.960326   -0.532319   -1.015728
     52          1           0        2.005366    2.896488    1.622110
     53          1           0        0.290161    3.281778    1.489364
     54          1           0        2.140981    3.014360   -0.939962
     55          1           0        0.501102    3.612396   -0.961127
     56          1           0        2.929922    4.906739    0.377226
     57          1           0        2.200800    5.421197   -1.125895
     58          1           0        2.265243   -2.731613    0.876496
     59          1           0        3.433062   -1.441606    1.168484
     60          1           0        3.367732   -0.995534   -1.394238
     61          1           0        2.478702   -2.498732   -1.547930
     62          1           0        4.876373   -2.754915   -2.012393
     63          1           0        5.299302   -2.144716   -0.407195
     64          1           0       -2.578660    0.123889   -0.681845
     65          1           0       -2.048127   -1.552558   -0.797547
     66          1           0       -2.682778   -0.218434    1.886636
     67          1           0       -2.446893   -1.929478    1.592340
     68          1           0       -4.812343   -1.306536    1.929863
     69          1           0       -4.753004   -0.203689    0.549723
 ---------------------------------------------------------------------
 Rotational constants (GHZ):      0.0369723      0.0240831      0.0151804
 Leave Link  202 at Sun Feb  2 04:59:34 2025, MaxMem=  5368709120 cpu:         0.1
 (Enter /home/k0335/k033513/app/g09/l301.exe)
 Standard basis: 6-31G(d,p) (6D, 7F)
 Ernie: Thresh=  0.10000D-02 Tol=  0.10000D-05 Strict=F.
   855 basis functions,  1554 primitive gaussians,   855 cartesian basis functions
   201 alpha electrons      201 beta electrons
       nuclear repulsion energy      7528.9681349249 Hartrees.
 IExCor=20419 DFT=T Ex+Corr=CAM-B3LYP ExCW=0 ScaHFX=  1.000000
 ScaDFX=  1.000000  1.000000  1.000000  0.810000 ScalE2=  1.000000  1.000000
 IRadAn=      0 IRanWt=     -1 IRanGd=            0 ICorTp=0 IEmpDi=  4
  HFx wShort=  0.000000 wLong=  0.330000 cFull=  0.190000 cShort=  0.000000 cLong=  0.460000
  DFx wShort=  0.000000 wLong=  0.330000 cFull=  0.190000 cShort=  0.000000 cLong=  0.460000
 NAtoms=   69 NActive=   69 NUniq=   69 SFac= 1.00D+00 NAtFMM=   60 NAOKFM=T Big=T
 Integral buffers will be    131072 words long.
 Raffenetti 2 integral format.
 Two-electron integral symmetry is turned off.
 Using the following non-standard input for PCM:
 eps=4.9
 --- end of non-standard input.
 ------------------------------------------------------------------------------
 Polarizable Continuum Model (PCM)
 =================================
 Model                : PCM (using non-symmetric T matrix).
 Atomic radii         : UFF (Universal Force Field).
 Polarization charges : Total charges.
 Charge compensation  : None.
 Solution method      : On-the-fly selection.
 Cavity type          : Scaled VdW (van der Waals Surface) (Alpha=1.100).
 Cavity algorithm     : GePol (No added spheres)
                        Default sphere list used, NSphG=   69.
                        Lebedev-Laikov grids with approx.  5.0 points / Ang**2.
                        Smoothing algorithm: Karplus/York (Gamma=1.0000).
                        Polarization charges: spherical gaussians, with
                                              point-specific exponents (IZeta= 3).
                        Self-potential: point-specific (ISelfS= 7).
                        Self-field    : sphere-specific E.n sum rule (ISelfD= 2).
 Solvent              : Generic,
                        Eps                           =   4.900000
                        Eps(infinity)                 =   0.000000
                        RSolv                         =   0.000000 Ang.
                        Molar volume                  =   0.000000 cm**3/mol
                        Thermal expansion coefficient =   0.000000 K**-1
                        Absolute temperature          = 298.150000 K
                        Numeral density               =   0.000000 Ang**-3
                        Hydrogen bond acidity         =   0.000000
                        Hydrogen bond basicity        =   0.000000
                        Surface tension at interface  =   0.000000 (cal/mol)*Ang**-2
                        Carbon aromaticity            =   0.000000
                        Electronegative halogenicity  =   0.000000
 ------------------------------------------------------------------------------
 GePol: Number of generator spheres                  =      69
 GePol: Total number of spheres                      =      69
 GePol: Number of exposed spheres                    =      69 (100.00%)
 GePol: Number of points                             =    5406
 GePol: Average weight of points                     =       0.13
 GePol: Minimum weight of points                     =   0.20D-10
 GePol: Maximum weight of points                     =    0.20577
 GePol: Number of points with low weight             =     273
 GePol: Fraction of low-weight points (<1% of avg)   =       5.05%
 GePol: Cavity surface area                          =    679.814 Ang**2
 GePol: Cavity volume                                =    771.396 Ang**3
 Leave Link  301 at Sun Feb  2 04:59:34 2025, MaxMem=  5368709120 cpu:         0.7
 (Enter /home/k0335/k033513/app/g09/l302.exe)
 NPDir=0 NMtPBC=     1 NCelOv=     1 NCel=       1 NClECP=     1 NCelD=      1
         NCelK=      1 NCelE2=     1 NClLst=     1 CellRange=     0.0.
 One-electron integrals computed using PRISM.
 NBasis=   855 RedAO= T EigKep=  1.40D-03  NBF=   855
 NBsUse=   855 1.00D-06 EigRej= -1.00D+00 NBFU=   855
 Precomputing XC quadrature grid using
 IXCGrd= 4 IRadAn=           0 IRanWt=          -1 IRanGd=           0 AccXCQ= 0.00D+00.
 Generated NRdTot=       0 NPtTot=           0 NUsed=           0 NTot=          32
 NSgBfM=   746   746   746   746   746 MxSgAt=    69 MxSgA2=    69.
 Leave Link  302 at Sun Feb  2 04:59:37 2025, MaxMem=  5368709120 cpu:        39.4
 (Enter /home/k0335/k033513/app/g09/l303.exe)
 DipDrv:  MaxL=1.
 Leave Link  303 at Sun Feb  2 04:59:38 2025, MaxMem=  5368709120 cpu:         1.2
 (Enter /home/k0335/k033513/app/g09/l401.exe)
 ExpMin= 1.61D-01 ExpMax= 7.00D+03 ExpMxC= 1.05D+03 IAcc=1 IRadAn=         1 AccDes= 0.00D+00
 Harris functional with IExCor=20419 and IRadAn=       1 diagonalized for initial guess.
 HarFok:  IExCor=20419 AccDes= 0.00D+00 IRadAn=         1 IDoV= 1 UseB2=F ITyADJ=14
 ICtDFT=  3500011 ScaDFX=  1.000000  1.000000  1.000000  1.000000
 FoFCou: FMM=F IPFlag=           0 FMFlag=      100000 FMFlg1=        2001
         NFxFlg=           0 DoJE=T BraDBF=F KetDBF=T FulRan=T
         wScrn=  0.000000 ICntrl=     500 IOpCl=  0 I1Cent=   200000004 NGrid=           0
         NMat0=    1 NMatS0=      1 NMatT0=    0 NMatD0=    1 NMtDS0=    0 NMtDT0=    0
 Symmetry not used in FoFCou.
 Harris En= -3413.52799691272    
 JPrj=0 DoOrth=F DoCkMO=F.
 Leave Link  401 at Sun Feb  2 04:59:39 2025, MaxMem=  5368709120 cpu:        26.5
 (Enter /home/k0335/k033513/app/g09/l502.exe)
 Closed shell SCF:
 Using DIIS extrapolation, IDIIS=  1040.
 Two-electron integral symmetry not used.
 IVT=     2237413 IEndB=     2237413 NGot=  5368709120 MDV=  5367220228
 LenX=  5367220228 LenY=  5366488348
 Requested convergence on RMS density matrix=1.00D-08 within 128 cycles.
 Requested convergence on MAX density matrix=1.00D-06.
 Requested convergence on             energy=1.00D-06.
 No special actions if energy rises.
 Fock matrices will be formed incrementally for  20 cycles.

 Cycle   1  Pass 1  IDiag  1:
 FoFJK:  IHMeth= 1 ICntrl=       0 DoSepK=T KAlg= 0 I1Cent=   0 FoldK=F
 IRaf=         1 NMat=   1 IRICut=       1 DoRegI=T DoRafI=F ISym2E= 0.
 FoFCou: FMM=T IPFlag=           0 FMFlag=      100000 FMFlg1=        2001
         NFxFlg=           0 DoJE=T BraDBF=F KetDBF=F FulRan=T
         wScrn=  0.000000 ICntrl=     500 IOpCl=  0 I1Cent=           0 NGrid=           0
         NMat0=    1 NMatS0=      1 NMatT0=    0 NMatD0=    1 NMtDS0=    0 NMtDT0=    0
 Symmetry not used in FoFCou.
 FMM levels:  10  Number of levels for PrismC:   9
 Inv3:  Mode=1 IEnd=    87674508.
 Iteration    1 A*A^-1 deviation from unit magnitude is 8.88D-15 for   5393.
 Iteration    1 A*A^-1 deviation from orthogonality  is 6.24D-15 for   5393    594.
 Iteration    1 A^-1*A deviation from unit magnitude is 8.66D-15 for   5393.
 Iteration    1 A^-1*A deviation from orthogonality  is 1.82D-13 for   4915   4914.
 E= -3521.17316524106    
 DIIS: error= 5.48D-02 at cycle   1 NSaved=   1.
 NSaved= 1 IEnMin= 1 EnMin= -3521.17316524106     IErMin= 1 ErrMin= 5.48D-02
 ErrMax= 5.48D-02  0.00D+00 EMaxC= 1.00D-01 BMatC= 3.02D+00 BMatP= 3.02D+00
 IDIUse=3 WtCom= 4.52D-01 WtEn= 5.48D-01
 Coeff-Com:  0.100D+01
 Coeff-En:   0.100D+01
 Coeff:      0.100D+01
 Gap=     0.463 Goal=   None    Shift=    0.000
 GapD=    0.463 DampG=2.000 DampE=0.500 DampFc=1.0000 IDamp=-1.
 RMSDP=2.52D-03 MaxDP=1.24D-01              OVMax= 1.32D-01

 Cycle   2  Pass 1  IDiag  1:
 RMSU=  2.52D-03    CP:  9.97D-01
 E= -3521.58300950012     Delta-E=       -0.409844259055 Rises=F Damp=F
 DIIS: error= 2.57D-02 at cycle   2 NSaved=   2.
 NSaved= 2 IEnMin= 2 EnMin= -3521.58300950012     IErMin= 2 ErrMin= 2.57D-02
 ErrMax= 2.57D-02  0.00D+00 EMaxC= 1.00D-01 BMatC= 1.25D+00 BMatP= 3.02D+00
 IDIUse=3 WtCom= 7.43D-01 WtEn= 2.57D-01
 Coeff-Com:  0.373D+00 0.627D+00
 Coeff-En:   0.377D+00 0.623D+00
 Coeff:      0.374D+00 0.626D+00
 Gap=     0.421 Goal=   None    Shift=    0.000
 RMSDP=1.27D-03 MaxDP=1.15D-01 DE=-4.10D-01 OVMax= 1.20D-01

 Cycle   3  Pass 1  IDiag  1:
 RMSU=  7.56D-04    CP:  9.98D-01  5.93D-01
 E= -3522.24404629260     Delta-E=       -0.661036792477 Rises=F Damp=F
 DIIS: error= 1.00D-02 at cycle   3 NSaved=   3.
 NSaved= 3 IEnMin= 3 EnMin= -3522.24404629260     IErMin= 3 ErrMin= 1.00D-02
 ErrMax= 1.00D-02  0.00D+00 EMaxC= 1.00D-01 BMatC= 2.22D-01 BMatP= 1.25D+00
 IDIUse=3 WtCom= 9.00D-01 WtEn= 1.00D-01
 Coeff-Com:  0.973D-01 0.318D+00 0.585D+00
 Coeff-En:   0.000D+00 0.110D+00 0.890D+00
 Coeff:      0.875D-01 0.297D+00 0.616D+00
 Gap=     0.387 Goal=   None    Shift=    0.000
 RMSDP=5.72D-04 MaxDP=6.43D-02 DE=-6.61D-01 OVMax= 9.23D-02

 Cycle   4  Pass 1  IDiag  1:
 RMSU=  2.95D-04    CP:  9.96D-01  6.93D-01  4.45D-01
 E= -3522.37686218692     Delta-E=       -0.132815894320 Rises=F Damp=F
 DIIS: error= 5.16D-03 at cycle   4 NSaved=   4.
 NSaved= 4 IEnMin= 4 EnMin= -3522.37686218692     IErMin= 4 ErrMin= 5.16D-03
 ErrMax= 5.16D-03  0.00D+00 EMaxC= 1.00D-01 BMatC= 3.54D-02 BMatP= 2.22D-01
 IDIUse=3 WtCom= 9.48D-01 WtEn= 5.16D-02
 Coeff-Com:  0.872D-02 0.929D-01 0.344D+00 0.554D+00
 Coeff-En:   0.000D+00 0.000D+00 0.123D+00 0.877D+00
 Coeff:      0.827D-02 0.881D-01 0.333D+00 0.571D+00
 Gap=     0.378 Goal=   None    Shift=    0.000
 RMSDP=2.07D-04 MaxDP=2.61D-02 DE=-1.33D-01 OVMax= 3.04D-02

 Cycle   5  Pass 1  IDiag  1:
 RMSU=  8.49D-05    CP:  9.96D-01  6.87D-01  6.32D-01  5.77D-01
 E= -3522.40096210474     Delta-E=       -0.024099917824 Rises=F Damp=F
 DIIS: error= 9.42D-04 at cycle   5 NSaved=   5.
 NSaved= 5 IEnMin= 5 EnMin= -3522.40096210474     IErMin= 5 ErrMin= 9.42D-04
 ErrMax= 9.42D-04  0.00D+00 EMaxC= 1.00D-01 BMatC= 2.08D-03 BMatP= 3.54D-02
 IDIUse=3 WtCom= 9.91D-01 WtEn= 9.42D-03
 Coeff-Com: -0.129D-02 0.273D-01 0.143D+00 0.312D+00 0.519D+00
 Coeff-En:   0.000D+00 0.000D+00 0.000D+00 0.000D+00 0.100D+01
 Coeff:     -0.128D-02 0.270D-01 0.141D+00 0.309D+00 0.524D+00
 Gap=     0.375 Goal=   None    Shift=    0.000
 RMSDP=4.35D-05 MaxDP=4.59D-03 DE=-2.41D-02 OVMax= 6.44D-03

 Cycle   6  Pass 1  IDiag  1:
 RMSU=  2.06D-05    CP:  9.96D-01  6.91D-01  6.21D-01  6.39D-01  6.33D-01
 E= -3522.40243837514     Delta-E=       -0.001476270396 Rises=F Damp=F
 DIIS: error= 1.29D-04 at cycle   6 NSaved=   6.
 NSaved= 6 IEnMin= 6 EnMin= -3522.40243837514     IErMin= 6 ErrMin= 1.29D-04
 ErrMax= 1.29D-04  0.00D+00 EMaxC= 1.00D-01 BMatC= 3.91D-05 BMatP= 2.08D-03
 IDIUse=3 WtCom= 9.99D-01 WtEn= 1.29D-03
 Coeff-Com: -0.827D-03-0.963D-04 0.106D-01 0.366D-01 0.146D+00 0.808D+00
 Coeff-En:   0.000D+00 0.000D+00 0.000D+00 0.000D+00 0.000D+00 0.100D+01
 Coeff:     -0.826D-03-0.962D-04 0.106D-01 0.366D-01 0.146D+00 0.808D+00
 Gap=     0.374 Goal=   None    Shift=    0.000
 RMSDP=9.04D-06 MaxDP=6.29D-04 DE=-1.48D-03 OVMax= 7.31D-04

 Cycle   7  Pass 1  IDiag  1:
 RMSU=  6.64D-06    CP:  9.96D-01  6.90D-01  6.25D-01  6.48D-01  6.80D-01
                    CP:  9.32D-01
 E= -3522.40246814059     Delta-E=       -0.000029765455 Rises=F Damp=F
 DIIS: error= 5.33D-05 at cycle   7 NSaved=   7.
 NSaved= 7 IEnMin= 7 EnMin= -3522.40246814059     IErMin= 7 ErrMin= 5.33D-05
 ErrMax= 5.33D-05  0.00D+00 EMaxC= 1.00D-01 BMatC= 8.04D-06 BMatP= 3.91D-05
 IDIUse=1 WtCom= 1.00D+00 WtEn= 0.00D+00
 Coeff-Com: -0.162D-03-0.293D-02-0.994D-02-0.156D-01 0.146D-01 0.373D+00
 Coeff-Com:  0.641D+00
 Coeff:     -0.162D-03-0.293D-02-0.994D-02-0.156D-01 0.146D-01 0.373D+00
 Coeff:      0.641D+00
 Gap=     0.374 Goal=   None    Shift=    0.000
 RMSDP=3.19D-06 MaxDP=2.25D-04 DE=-2.98D-05 OVMax= 3.59D-04

 Cycle   8  Pass 1  IDiag  1:
 RMSU=  1.70D-06    CP:  9.96D-01  6.91D-01  6.25D-01  6.47D-01  6.93D-01
                    CP:  1.02D+00  7.72D-01
 E= -3522.40247535036     Delta-E=       -0.000007209768 Rises=F Damp=F
 DIIS: error= 8.35D-06 at cycle   8 NSaved=   8.
 NSaved= 8 IEnMin= 8 EnMin= -3522.40247535036     IErMin= 8 ErrMin= 8.35D-06
 ErrMax= 8.35D-06  0.00D+00 EMaxC= 1.00D-01 BMatC= 1.98D-07 BMatP= 8.04D-06
 IDIUse=1 WtCom= 1.00D+00 WtEn= 0.00D+00
 Coeff-Com: -0.267D-05-0.808D-03-0.325D-02-0.661D-02-0.480D-02 0.460D-01
 Coeff-Com:  0.149D+00 0.821D+00
 Coeff:     -0.267D-05-0.808D-03-0.325D-02-0.661D-02-0.480D-02 0.460D-01
 Coeff:      0.149D+00 0.821D+00
 Gap=     0.374 Goal=   None    Shift=    0.000
 RMSDP=7.99D-07 MaxDP=7.94D-05 DE=-7.21D-06 OVMax= 1.32D-04

 Cycle   9  Pass 1  IDiag  1:
 RMSU=  5.54D-07    CP:  9.96D-01  6.91D-01  6.26D-01  6.47D-01  6.96D-01
                    CP:  1.03D+00  8.19D-01  1.09D+00
 E= -3522.40247556292     Delta-E=       -0.000000212558 Rises=F Damp=F
 DIIS: error= 4.98D-06 at cycle   9 NSaved=   9.
 NSaved= 9 IEnMin= 9 EnMin= -3522.40247556292     IErMin= 9 ErrMin= 4.98D-06
 ErrMax= 4.98D-06  0.00D+00 EMaxC= 1.00D-01 BMatC= 5.73D-08 BMatP= 1.98D-07
 IDIUse=1 WtCom= 1.00D+00 WtEn= 0.00D+00
 Coeff-Com:  0.208D-04 0.931D-04 0.140D-03-0.585D-03-0.418D-02-0.381D-01
 Coeff-Com: -0.320D-01 0.380D+00 0.695D+00
 Coeff:      0.208D-04 0.931D-04 0.140D-03-0.585D-03-0.418D-02-0.381D-01
 Coeff:     -0.320D-01 0.380D+00 0.695D+00
 Gap=     0.374 Goal=   None    Shift=    0.000
 RMSDP=3.37D-07 MaxDP=2.94D-05 DE=-2.13D-07 OVMax= 7.23D-05

 Cycle  10  Pass 1  IDiag  1:
 RMSU=  1.92D-07    CP:  9.96D-01  6.91D-01  6.26D-01  6.47D-01  6.97D-01
                    CP:  1.04D+00  8.38D-01  1.20D+00  9.10D-01
 E= -3522.40247561748     Delta-E=       -0.000000054566 Rises=F Damp=F
 DIIS: error= 1.13D-06 at cycle  10 NSaved=  10.
 NSaved=10 IEnMin=10 EnMin= -3522.40247561748     IErMin=10 ErrMin= 1.13D-06
 ErrMax= 1.13D-06  0.00D+00 EMaxC= 1.00D-01 BMatC= 2.99D-09 BMatP= 5.73D-08
 IDIUse=1 WtCom= 1.00D+00 WtEn= 0.00D+00
 Coeff-Com:  0.651D-05 0.965D-04 0.325D-03 0.350D-03-0.620D-03-0.149D-01
 Coeff-Com: -0.213D-01 0.391D-01 0.207D+00 0.790D+00
 Coeff:      0.651D-05 0.965D-04 0.325D-03 0.350D-03-0.620D-03-0.149D-01
 Coeff:     -0.213D-01 0.391D-01 0.207D+00 0.790D+00
 Gap=     0.374 Goal=   None    Shift=    0.000
 RMSDP=9.76D-08 MaxDP=1.00D-05 DE=-5.46D-08 OVMax= 2.05D-05

 Cycle  11  Pass 1  IDiag  1:
 RMSU=  5.61D-08    CP:  9.96D-01  6.91D-01  6.26D-01  6.47D-01  6.97D-01
                    CP:  1.04D+00  8.41D-01  1.23D+00  9.88D-01  1.03D+00
 E= -3522.40247562079     Delta-E=       -0.000000003307 Rises=F Damp=F
 DIIS: error= 3.70D-07 at cycle  11 NSaved=  11.
 NSaved=11 IEnMin=11 EnMin= -3522.40247562079     IErMin=11 ErrMin= 3.70D-07
 ErrMax= 3.70D-07  0.00D+00 EMaxC= 1.00D-01 BMatC= 4.56D-10 BMatP= 2.99D-09
 IDIUse=1 WtCom= 1.00D+00 WtEn= 0.00D+00
 Coeff-Com:  0.117D-05 0.353D-04 0.137D-03 0.201D-03 0.173D-03-0.315D-02
 Coeff-Com: -0.644D-02-0.186D-01 0.246D-01 0.310D+00 0.693D+00
 Coeff:      0.117D-05 0.353D-04 0.137D-03 0.201D-03 0.173D-03-0.315D-02
 Coeff:     -0.644D-02-0.186D-01 0.246D-01 0.310D+00 0.693D+00
 Gap=     0.374 Goal=   None    Shift=    0.000
 RMSDP=3.13D-08 MaxDP=4.59D-06 DE=-3.31D-09 OVMax= 5.59D-06

 Cycle  12  Pass 1  IDiag  1:
 RMSU=  1.82D-08    CP:  9.96D-01  6.91D-01  6.26D-01  6.47D-01  6.97D-01
                    CP:  1.04D+00  8.42D-01  1.24D+00  1.01D+00  1.11D+00
                    CP:  9.61D-01
 E= -3522.40247562114     Delta-E=       -0.000000000349 Rises=F Damp=F
 DIIS: error= 1.79D-07 at cycle  12 NSaved=  12.
 NSaved=12 IEnMin=12 EnMin= -3522.40247562114     IErMin=12 ErrMin= 1.79D-07
 ErrMax= 1.79D-07  0.00D+00 EMaxC= 1.00D-01 BMatC= 5.24D-11 BMatP= 4.56D-10
 IDIUse=1 WtCom= 1.00D+00 WtEn= 0.00D+00
 Coeff-Com: -0.490D-06-0.294D-06 0.871D-05 0.240D-04 0.198D-03 0.101D-02
 Coeff-Com:  0.846D-03-0.116D-01-0.188D-01-0.331D-02 0.241D+00 0.791D+00
 Coeff:     -0.490D-06-0.294D-06 0.871D-05 0.240D-04 0.198D-03 0.101D-02
 Coeff:      0.846D-03-0.116D-01-0.188D-01-0.331D-02 0.241D+00 0.791D+00
 Gap=     0.374 Goal=   None    Shift=    0.000
 RMSDP=1.25D-08 MaxDP=1.44D-06 DE=-3.49D-10 OVMax= 2.32D-06

 Cycle  13  Pass 1  IDiag  1:
 RMSU=  6.49D-09    CP:  9.96D-01  6.91D-01  6.26D-01  6.47D-01  6.97D-01
                    CP:  1.04D+00  8.42D-01  1.24D+00  1.02D+00  1.14D+00
                    CP:  1.05D+00  9.26D-01
 E= -3522.40247562149     Delta-E=       -0.000000000346 Rises=F Damp=F
 DIIS: error= 6.86D-08 at cycle  13 NSaved=  13.
 NSaved=13 IEnMin=13 EnMin= -3522.40247562149     IErMin=13 ErrMin= 6.86D-08
 ErrMax= 6.86D-08  0.00D+00 EMaxC= 1.00D-01 BMatC= 7.68D-12 BMatP= 5.24D-11
 IDIUse=1 WtCom= 1.00D+00 WtEn= 0.00D+00
 Coeff-Com: -0.299D-06-0.301D-05-0.666D-05-0.700D-05 0.802D-04 0.702D-03
 Coeff-Com:  0.901D-03-0.375D-02-0.103D-01-0.278D-01 0.465D-01 0.361D+00
 Coeff-Com:  0.632D+00
 Coeff:     -0.299D-06-0.301D-05-0.666D-05-0.700D-05 0.802D-04 0.702D-03
 Coeff:      0.901D-03-0.375D-02-0.103D-01-0.278D-01 0.465D-01 0.361D+00
 Coeff:      0.632D+00
 Gap=     0.374 Goal=   None    Shift=    0.000
 RMSDP=3.78D-09 MaxDP=5.31D-07 DE=-3.46D-10 OVMax= 6.47D-07

 Error on total polarization charges =  0.00356
 SCF Done:  E(RCAM-B3LYP) =  -3522.40247562     A.U. after   13 cycles
            NFock= 13  Conv=0.38D-08     -V/T= 2.0076
 KE= 3.495973300492D+03 PE=-2.337434876566D+04 EE= 8.827004854626D+03
 Leave Link  502 at Sun Feb  2 05:01:04 2025, MaxMem=  5368709120 cpu:      1779.6
 (Enter /home/k0335/k033513/app/g09/l601.exe)
 Copying SCF densities to generalized density rwf, IOpCl= 0 IROHF=0.

 **********************************************************************

            Population analysis using the SCF density.

 **********************************************************************

 Alpha  occ. eigenvalues --  -24.83341 -24.83338 -24.83276 -24.83065 -24.82874
 Alpha  occ. eigenvalues --  -24.82835 -24.82732 -24.82716 -24.82623 -24.82546
 Alpha  occ. eigenvalues --  -24.82516 -24.82320 -24.81949 -24.81945 -24.81776
 Alpha  occ. eigenvalues --  -24.81013 -24.80806 -24.80675 -24.80626 -24.80587
 Alpha  occ. eigenvalues --  -24.80021 -19.32268 -19.32220 -19.32108 -19.22100
 Alpha  occ. eigenvalues --  -19.21929 -19.21896 -14.48693 -14.48667 -14.48646
 Alpha  occ. eigenvalues --  -10.59044 -10.59032 -10.58943 -10.52631 -10.52441
 Alpha  occ. eigenvalues --  -10.52402 -10.46452 -10.46187 -10.46068 -10.43236
 Alpha  occ. eigenvalues --  -10.43157 -10.43154 -10.31023 -10.30970 -10.30847
 Alpha  occ. eigenvalues --  -10.28908 -10.28845 -10.28685 -10.27756 -10.27641
 Alpha  occ. eigenvalues --  -10.27600  -1.42655  -1.42589  -1.42588  -1.38973
 Alpha  occ. eigenvalues --   -1.38708  -1.38315  -1.36143  -1.35609  -1.35597
 Alpha  occ. eigenvalues --   -1.33205  -1.33086  -1.33035  -1.32516  -1.32379
 Alpha  occ. eigenvalues --   -1.32312  -1.31852  -1.31531  -1.30980  -1.29854
 Alpha  occ. eigenvalues --   -1.29636  -1.29258  -1.20441  -1.20394  -1.20372
 Alpha  occ. eigenvalues --   -1.19894  -1.15229  -1.15180  -1.06769  -1.04199
 Alpha  occ. eigenvalues --   -1.04132  -0.91916  -0.91539  -0.91319  -0.88287
 Alpha  occ. eigenvalues --   -0.87403  -0.87017  -0.83902  -0.82878  -0.82136
 Alpha  occ. eigenvalues --   -0.79734  -0.79157  -0.78789  -0.76178  -0.76018
 Alpha  occ. eigenvalues --   -0.75312  -0.73671  -0.73562  -0.71849  -0.71368
 Alpha  occ. eigenvalues --   -0.71331  -0.71078  -0.70940  -0.70665  -0.70317
 Alpha  occ. eigenvalues --   -0.69936  -0.69886  -0.69764  -0.69411  -0.69058
 Alpha  occ. eigenvalues --   -0.68689  -0.67387  -0.67260  -0.66648  -0.66600
 Alpha  occ. eigenvalues --   -0.66383  -0.65872  -0.63582  -0.63500  -0.63235
 Alpha  occ. eigenvalues --   -0.61973  -0.61101  -0.60856  -0.60721  -0.60134
 Alpha  occ. eigenvalues --   -0.59930  -0.59690  -0.58857  -0.57113  -0.57002
 Alpha  occ. eigenvalues --   -0.56938  -0.56392  -0.56290  -0.56198  -0.55871
 Alpha  occ. eigenvalues --   -0.55630  -0.55370  -0.55240  -0.55196  -0.54337
 Alpha  occ. eigenvalues --   -0.54260  -0.53946  -0.53887  -0.53754  -0.53653
 Alpha  occ. eigenvalues --   -0.53537  -0.52987  -0.52901  -0.52773  -0.52496
 Alpha  occ. eigenvalues --   -0.52445  -0.52093  -0.51891  -0.51735  -0.51533
 Alpha  occ. eigenvalues --   -0.51324  -0.51271  -0.51244  -0.50937  -0.50854
 Alpha  occ. eigenvalues --   -0.50538  -0.50465  -0.50244  -0.50086  -0.49965
 Alpha  occ. eigenvalues --   -0.49752  -0.49695  -0.49552  -0.49250  -0.49221
 Alpha  occ. eigenvalues --   -0.49185  -0.48959  -0.48816  -0.48680  -0.48397
 Alpha  occ. eigenvalues --   -0.48163  -0.48000  -0.47891  -0.47548  -0.47135
 Alpha  occ. eigenvalues --   -0.46145  -0.45774  -0.45484  -0.45205  -0.44976
 Alpha  occ. eigenvalues --   -0.44567  -0.44477  -0.44158  -0.43458  -0.42391
 Alpha  occ. eigenvalues --   -0.41975  -0.41814  -0.40557  -0.40498  -0.40370
 Alpha  occ. eigenvalues --   -0.38067  -0.37913  -0.35640  -0.34467  -0.34365
 Alpha  occ. eigenvalues --   -0.34085
 Alpha virt. eigenvalues --    0.03360   0.03535   0.11013   0.11112   0.11514
 Alpha virt. eigenvalues --    0.11839   0.11935   0.12338   0.14480   0.14705
 Alpha virt. eigenvalues --    0.15284   0.15740   0.16917   0.17041   0.17223
 Alpha virt. eigenvalues --    0.17919   0.18624   0.19068   0.19372   0.19507
 Alpha virt. eigenvalues --    0.19710   0.19756   0.20110   0.20196   0.20318
 Alpha virt. eigenvalues --    0.21004   0.21199   0.21401   0.21657   0.21977
 Alpha virt. eigenvalues --    0.22427   0.22565   0.22861   0.22956   0.23203
 Alpha virt. eigenvalues --    0.23387   0.23558   0.23974   0.24591   0.24729
 Alpha virt. eigenvalues --    0.25054   0.25280   0.25401   0.25535   0.26096
 Alpha virt. eigenvalues --    0.26296   0.26731   0.27301   0.27689   0.28270
 Alpha virt. eigenvalues --    0.29002   0.29219   0.29400   0.29604   0.30005
 Alpha virt. eigenvalues --    0.30265   0.30426   0.31279   0.31702   0.31986
 Alpha virt. eigenvalues --    0.32453   0.32465   0.32690   0.33827   0.34685
 Alpha virt. eigenvalues --    0.35069   0.36845   0.37169   0.37830   0.41848
 Alpha virt. eigenvalues --    0.42221   0.48977   0.50654   0.50865   0.50961
 Alpha virt. eigenvalues --    0.51007   0.51971   0.52224   0.52671   0.52834
 Alpha virt. eigenvalues --    0.53081   0.53601   0.54045   0.54158   0.54441
 Alpha virt. eigenvalues --    0.54862   0.55119   0.55302   0.55603   0.56184
 Alpha virt. eigenvalues --    0.56600   0.57458   0.57539   0.57937   0.58311
 Alpha virt. eigenvalues --    0.58770   0.59161   0.60038   0.60367   0.60786
 Alpha virt. eigenvalues --    0.61447   0.61903   0.63025   0.63134   0.63472
 Alpha virt. eigenvalues --    0.63995   0.64493   0.64570   0.65016   0.65575
 Alpha virt. eigenvalues --    0.66569   0.66647   0.68152   0.68795   0.69604
 Alpha virt. eigenvalues --    0.69764   0.70478   0.71164   0.71948   0.72231
 Alpha virt. eigenvalues --    0.73042   0.73639   0.73751   0.76435   0.77408
 Alpha virt. eigenvalues --    0.78788   0.79316   0.79699   0.80754   0.81978
 Alpha virt. eigenvalues --    0.82703   0.83493   0.84101   0.84713   0.85628
 Alpha virt. eigenvalues --    0.86094   0.86501   0.87143   0.87788   0.88298
 Alpha virt. eigenvalues --    0.89000   0.89347   0.89859   0.91406   0.91635
 Alpha virt. eigenvalues --    0.92043   0.92738   0.93069   0.93096   0.94036
 Alpha virt. eigenvalues --    0.94201   0.94765   0.94901   0.95209   0.96024
 Alpha virt. eigenvalues --    0.96453   0.96503   0.97198   0.97398   0.98075
 Alpha virt. eigenvalues --    0.98548   0.98993   0.99158   0.99948   1.00092
 Alpha virt. eigenvalues --    1.00705   1.01096   1.01584   1.02835   1.03391
 Alpha virt. eigenvalues --    1.03880   1.04273   1.05029   1.05402   1.05775
 Alpha virt. eigenvalues --    1.06489   1.07607   1.08490   1.08854   1.09949
 Alpha virt. eigenvalues --    1.10331   1.11069   1.11327   1.11808   1.11958
 Alpha virt. eigenvalues --    1.12627   1.13388   1.13613   1.13865   1.14063
 Alpha virt. eigenvalues --    1.14235   1.15441   1.15739   1.16404   1.16835
 Alpha virt. eigenvalues --    1.17032   1.17163   1.18211   1.18439   1.19319
 Alpha virt. eigenvalues --    1.20025   1.20172   1.20745   1.20945   1.21897
 Alpha virt. eigenvalues --    1.22103   1.22450   1.23409   1.23915   1.24457
 Alpha virt. eigenvalues --    1.24693   1.24946   1.25626   1.26036   1.26651
 Alpha virt. eigenvalues --    1.27091   1.28140   1.29183   1.29857   1.30339
 Alpha virt. eigenvalues --    1.30738   1.31274   1.32338   1.33184   1.33279
 Alpha virt. eigenvalues --    1.33947   1.34989   1.35652   1.35743   1.36327
 Alpha virt. eigenvalues --    1.36863   1.37020   1.37297   1.37344   1.37712
 Alpha virt. eigenvalues --    1.38018   1.38242   1.38520   1.38775   1.39260
 Alpha virt. eigenvalues --    1.39440   1.39673   1.40063   1.40383   1.40761
 Alpha virt. eigenvalues --    1.40881   1.41014   1.41700   1.41816   1.42037
 Alpha virt. eigenvalues --    1.42519   1.42834   1.43408   1.43507   1.43788
 Alpha virt. eigenvalues --    1.44106   1.44205   1.44646   1.44807   1.45204
 Alpha virt. eigenvalues --    1.45511   1.46225   1.46617   1.46709   1.47675
 Alpha virt. eigenvalues --    1.48367   1.49456   1.49624   1.51040   1.51736
 Alpha virt. eigenvalues --    1.52325   1.52745   1.54330   1.54954   1.55254
 Alpha virt. eigenvalues --    1.55568   1.55822   1.55992   1.56183   1.56396
 Alpha virt. eigenvalues --    1.56735   1.57929   1.58195   1.58486   1.59744
 Alpha virt. eigenvalues --    1.60350   1.60868   1.61551   1.63291   1.64320
 Alpha virt. eigenvalues --    1.64449   1.65479   1.66037   1.66847   1.67128
 Alpha virt. eigenvalues --    1.69149   1.69559   1.70236   1.70311   1.71253
 Alpha virt. eigenvalues --    1.71921   1.72489   1.72889   1.73135   1.73284
 Alpha virt. eigenvalues --    1.74176   1.74271   1.74852   1.75215   1.75779
 Alpha virt. eigenvalues --    1.76916   1.78040   1.78218   1.78850   1.79264
 Alpha virt. eigenvalues --    1.80064   1.80619   1.80658   1.81280   1.81768
 Alpha virt. eigenvalues --    1.82268   1.82946   1.83094   1.83905   1.84404
 Alpha virt. eigenvalues --    1.84625   1.84969   1.85217   1.85556   1.85616
 Alpha virt. eigenvalues --    1.85669   1.85929   1.86087   1.86822   1.87290
 Alpha virt. eigenvalues --    1.87487   1.87942   1.88069   1.88140   1.88695
 Alpha virt. eigenvalues --    1.89048   1.89161   1.89643   1.89893   1.90168
 Alpha virt. eigenvalues --    1.90752   1.90962   1.91116   1.92014   1.92349
 Alpha virt. eigenvalues --    1.92418   1.92762   1.93288   1.93401   1.93673
 Alpha virt. eigenvalues --    1.93876   1.94399   1.94508   1.94586   1.95473
 Alpha virt. eigenvalues --    1.95604   1.95910   1.96340   1.96531   1.97059
 Alpha virt. eigenvalues --    1.97173   1.97365   1.97836   1.98013   1.98362
 Alpha virt. eigenvalues --    1.98883   1.99034   1.99533   1.99901   2.00226
 Alpha virt. eigenvalues --    2.00864   2.00966   2.01120   2.01389   2.01949
 Alpha virt. eigenvalues --    2.02329   2.02575   2.02819   2.03023   2.03240
 Alpha virt. eigenvalues --    2.03638   2.03770   2.04081   2.04244   2.04597
 Alpha virt. eigenvalues --    2.05108   2.05513   2.05605   2.06337   2.06482
 Alpha virt. eigenvalues --    2.06642   2.07441   2.07591   2.07914   2.08270
 Alpha virt. eigenvalues --    2.08526   2.09018   2.09382   2.09556   2.09642
 Alpha virt. eigenvalues --    2.09873   2.09957   2.10276   2.10706   2.11610
 Alpha virt. eigenvalues --    2.12362   2.12453   2.13177   2.13836   2.15809
 Alpha virt. eigenvalues --    2.16168   2.16735   2.17198   2.17925   2.18077
 Alpha virt. eigenvalues --    2.18897   2.19301   2.19478   2.19937   2.20092
 Alpha virt. eigenvalues --    2.20143   2.21036   2.21358   2.22418   2.22836
 Alpha virt. eigenvalues --    2.22893   2.23622   2.23742   2.25381   2.26052
 Alpha virt. eigenvalues --    2.26406   2.26879   2.27571   2.28923   2.29897
 Alpha virt. eigenvalues --    2.30058   2.30951   2.31319   2.32112   2.32560
 Alpha virt. eigenvalues --    2.33029   2.34124   2.34704   2.35108   2.35602
 Alpha virt. eigenvalues --    2.35861   2.36035   2.36454   2.36971   2.37536
 Alpha virt. eigenvalues --    2.38245   2.39100   2.39640   2.40175   2.40974
 Alpha virt. eigenvalues --    2.41117   2.41545   2.42182   2.42293   2.42705
 Alpha virt. eigenvalues --    2.43134   2.43497   2.44124   2.44618   2.45504
 Alpha virt. eigenvalues --    2.45740   2.46395   2.47968   2.48822   2.49277
 Alpha virt. eigenvalues --    2.49952   2.50301   2.51600   2.52021   2.52899
 Alpha virt. eigenvalues --    2.53799   2.54637   2.55219   2.56496   2.57110
 Alpha virt. eigenvalues --    2.57770   2.58618   2.59455   2.59502   2.60749
 Alpha virt. eigenvalues --    2.61286   2.61693   2.63571   2.63843   2.64500
 Alpha virt. eigenvalues --    2.65180   2.66042   2.66929   2.68729   2.69258
 Alpha virt. eigenvalues --    2.70325   2.71435   2.72747   2.73819   2.73961
 Alpha virt. eigenvalues --    2.74749   2.75183   2.76073   2.76211   2.76739
 Alpha virt. eigenvalues --    2.76981   2.77485   2.77794   2.78487   2.78810
 Alpha virt. eigenvalues --    2.79639   2.79950   2.80599   2.80910   2.81464
 Alpha virt. eigenvalues --    2.81999   2.82643   2.83720   2.84456   2.85283
 Alpha virt. eigenvalues --    2.85885   2.87051   2.87811   2.87858   2.88520
 Alpha virt. eigenvalues --    2.89448   2.89921   2.90639   2.91656   2.92518
 Alpha virt. eigenvalues --    2.93289   2.93827   2.93996   2.94308   2.94439
 Alpha virt. eigenvalues --    2.95621   2.96044   2.96484   2.96630   2.97564
 Alpha virt. eigenvalues --    2.98082   2.98317   2.98988   2.99008   2.99143
 Alpha virt. eigenvalues --    2.99901   3.00353   3.03741   3.03799   3.04213
 Alpha virt. eigenvalues --    3.04266   3.04569   3.05896   3.06333   3.06379
 Alpha virt. eigenvalues --    3.06642   3.07824   3.08086   3.09072   3.09659
 Alpha virt. eigenvalues --    3.10464   3.14376   3.15871   3.16341   3.17443
 Alpha virt. eigenvalues --    3.17727   3.19007   3.20342   3.20776   3.21812
 Alpha virt. eigenvalues --    3.22188   3.22599   3.23652   3.25545   3.25777
 Alpha virt. eigenvalues --    3.27375   3.28834   3.31296   3.32347   3.33095
 Alpha virt. eigenvalues --    3.33970   3.37551   3.38683   3.39271   3.42059
 Alpha virt. eigenvalues --    3.42977   3.43504   3.44529   3.48577   3.49290
 Alpha virt. eigenvalues --    3.50174   3.56325   3.57556   3.57620   3.59971
 Alpha virt. eigenvalues --    3.62668   3.63158   3.63431   4.06468   4.10994
 Alpha virt. eigenvalues --    4.12945   4.14885   4.16157   4.17057   4.25397
 Alpha virt. eigenvalues --    4.25815   4.27534   4.30195   4.31463   4.36142
 Alpha virt. eigenvalues --    4.39013   4.39674   4.41269   4.41863   4.42532
 Alpha virt. eigenvalues --    4.45931   4.47201   4.48234   4.52502   4.53055
 Alpha virt. eigenvalues --    4.55709   4.58239   4.62543   4.63901   4.66948
 Alpha virt. eigenvalues --    4.69796   4.73952   4.74759   4.77745   4.79749
 Alpha virt. eigenvalues --    4.82504   4.85983   4.86403   4.89464   4.95958
 Alpha virt. eigenvalues --    5.00479   5.11764   5.17798   5.22260   5.31382
 Alpha virt. eigenvalues --    5.42897   5.44935   5.46808   5.71177   6.02730
 Alpha virt. eigenvalues --    6.06504   6.07350   6.50456   6.55447
          Condensed to atoms (all electrons):
 Mulliken charges:
               1
     1  O   -0.538510
     2  C    0.822344
     3  N   -0.568580
     4  C   -0.053283
     5  C   -0.213038
     6  C   -0.271443
     7  C    0.541348
     8  F   -0.274166
     9  F   -0.288425
    10  C    0.770335
    11  F   -0.252453
    12  F   -0.266870
    13  O   -0.515017
    14  C    0.989075
    15  F   -0.247535
    16  F   -0.246905
    17  F   -0.248437
    18  C    0.822818
    19  O   -0.541705
    20  N   -0.570355
    21  C   -0.056995
    22  C   -0.206797
    23  C   -0.261705
    24  C    0.550316
    25  F   -0.282025
    26  F   -0.281117
    27  C    0.744000
    28  F   -0.271958
    29  F   -0.261322
    30  O   -0.494214
    31  C    0.977871
    32  F   -0.244826
    33  F   -0.243384
    34  F   -0.245380
    35  C    0.818939
    36  O   -0.534328
    37  N   -0.572371
    38  C   -0.057333
    39  C   -0.203865
    40  C   -0.266771
    41  C    0.548142
    42  F   -0.281191
    43  F   -0.278980
    44  C    0.760602
    45  F   -0.264654
    46  F   -0.266396
    47  O   -0.514041
    48  C    0.989663
    49  F   -0.244727
    50  F   -0.245760
    51  F   -0.249171
    52  H    0.145794
    53  H    0.149111
    54  H    0.129711
    55  H    0.133423
    56  H    0.155431
    57  H    0.148627
    58  H    0.155057
    59  H    0.145474
    60  H    0.130397
    61  H    0.135991
    62  H    0.149521
    63  H    0.148800
    64  H    0.145996
    65  H    0.154059
    66  H    0.130392
    67  H    0.134794
    68  H    0.146934
    69  H    0.151069
 Sum of Mulliken charges =   0.00000
 Mulliken charges with hydrogens summed into heavy atoms:
               1
     1  O   -0.538510
     2  C    0.822344
     3  N   -0.568580
     4  C    0.241622
     5  C    0.050095
     6  C    0.032615
     7  C    0.541348
     8  F   -0.274166
     9  F   -0.288425
    10  C    0.770335
    11  F   -0.252453
    12  F   -0.266870
    13  O   -0.515017
    14  C    0.989075
    15  F   -0.247535
    16  F   -0.246905
    17  F   -0.248437
    18  C    0.822818
    19  O   -0.541705
    20  N   -0.570355
    21  C    0.243536
    22  C    0.059591
    23  C    0.036617
    24  C    0.550316
    25  F   -0.282025
    26  F   -0.281117
    27  C    0.744000
    28  F   -0.271958
    29  F   -0.261322
    30  O   -0.494214
    31  C    0.977871
    32  F   -0.244826
    33  F   -0.243384
    34  F   -0.245380
    35  C    0.818939
    36  O   -0.534328
    37  N   -0.572371
    38  C    0.242722
    39  C    0.061321
    40  C    0.031233
    41  C    0.548142
    42  F   -0.281191
    43  F   -0.278980
    44  C    0.760602
    45  F   -0.264654
    46  F   -0.266396
    47  O   -0.514041
    48  C    0.989663
    49  F   -0.244727
    50  F   -0.245760
    51  F   -0.249171
 Electronic spatial extent (au):  <R**2>=          59916.1116
 Charge=              0.0000 electrons
 Dipole moment (field-independent basis, Debye):
    X=              1.8269    Y=              1.8166    Z=             -0.3509  Tot=              2.6001
 Quadrupole moment (field-independent basis, Debye-Ang):
   XX=           -288.9892   YY=           -317.5554   ZZ=           -271.6077
   XY=              9.2564   XZ=            -10.2530   YZ=             -8.4497
 Traceless Quadrupole moment (field-independent basis, Debye-Ang):
   XX=              3.7282   YY=            -24.8380   ZZ=             21.1097
   XY=              9.2564   XZ=            -10.2530   YZ=             -8.4497
 Octapole moment (field-independent basis, Debye-Ang**2):
  XXX=            175.9153  YYY=             45.8911  ZZZ=            -56.1217  XYY=             47.9007
  XXY=            103.3631  XXZ=             -8.1162  XZZ=             53.1200  YZZ=             17.1284
  YYZ=            -49.6661  XYZ=             -3.8197
 Hexadecapole moment (field-independent basis, Debye-Ang**3):
 XXXX=         -31928.0823 YYYY=         -33849.4825 ZZZZ=          -1503.5088 XXXY=           3433.3509
 XXXZ=           -768.2853 YYYX=           3802.3013 YYYZ=           -341.8661 ZZZX=           -624.1274
 ZZZY=            -88.6475 XXYY=         -11031.0825 XXZZ=          -5392.3939 YYZZ=          -5623.9654
 XXYZ=           -104.6048 YYXZ=           -201.7758 ZZXY=           1097.1756
 N-N= 7.528968134925D+03 E-N=-2.337434874888D+04  KE= 3.495973300492D+03
 No NMR shielding tensors so no spin-rotation constants.
 Leave Link  601 at Sun Feb  2 05:01:04 2025, MaxMem=  5368709120 cpu:         4.4
 (Enter /home/k0335/k033513/app/g09/l9999.exe)
 1\1\GINC-C18U06N3\SP\RCAM-B3LYP\6-31G(d,p)\C21H18F21N3O6\K033513\02-Fe
 b-2025\0\\#p CAM-B3LYP/6-31G(d,p) SCRF=(PCM,Solvent=Generic,Read) NoSy
 mm out=wfn\\Title TAIC0_neu\\0,1\O,0,-1.38365,1.893238,0.446146\C,0,-0
 .471669,1.063162,0.443179\N,0,0.832401,1.41655,0.714859\C,0,1.133829,2
 .826155,0.960154\C,0,1.408642,3.579207,-0.347719\C,0,1.967607,4.989863
 ,-0.144472\C,0,1.09505,5.975191,0.630972\F,0,0.923653,5.508219,1.89913
 3\F,0,1.816097,7.130629,0.765596\C,0,-0.261896,6.296672,-0.023145\F,0,
 -1.019273,5.176876,-0.105817\F,0,-0.06663,6.743054,-1.289466\O,0,-0.98
 4756,7.250893,0.716291\C,0,-1.99243,7.794608,-0.084837\F,0,-2.881256,8
 .418376,0.716957\F,0,-2.648568,6.8545,-0.790047\F,0,-1.470595,8.711918
 ,-0.922157\C,0,1.885447,0.529989,0.646172\O,0,3.058729,0.909088,0.7003
 8\N,0,1.556915,-0.799839,0.492673\C,0,2.643203,-1.780031,0.486852\C,0,
 3.214455,-1.975621,-0.92342\C,0,4.553327,-2.723103,-0.964794\C,0,4.496
 18,-4.144401,-0.410553\F,0,3.480182,-4.815923,-1.014145\F,0,4.182972,-
 4.076014,0.910695\C,0,5.832297,-4.905085,-0.61659\F,0,6.154487,-4.8553
 02,-1.944382\F,0,6.854422,-4.265135,0.011563\O,0,5.903371,-6.267975,-0
 .281371\C,0,5.491185,-6.484624,1.035098\F,0,5.96076,-5.540977,1.86967\
 F,0,4.148445,-6.519193,1.089993\F,0,5.961839,-7.681843,1.439424\C,0,0.
 277282,-1.237511,0.222449\O,0,0.024533,-2.42908,0.036204\N,0,-0.700989
 ,-0.266988,0.160616\C,0,-2.072807,-0.680777,-0.135384\C,0,-2.847784,-1
 .011084,1.145644\C,0,-4.362032,-1.149793,0.942199\C,0,-4.767234,-2.300
 259,0.021684\F,0,-4.157452,-3.43964,0.447712\F,0,-4.28643,-2.052927,-1
 .229773\C,0,-6.294414,-2.503837,-0.042376\F,0,-6.770996,-2.785635,1.19
 7428\F,0,-6.597372,-3.553799,-0.842854\O,0,-6.955408,-1.345737,-0.4985
 1\C,0,-8.255476,-1.678408,-0.892536\F,0,-8.875054,-2.456522,0.012817\F
 ,0,-8.239755,-2.287842,-2.093265\F,0,-8.960326,-0.532319,-1.015728\H,0
 ,2.005366,2.896488,1.62211\H,0,0.290161,3.281778,1.489364\H,0,2.140981
 ,3.01436,-0.939962\H,0,0.501102,3.612396,-0.961127\H,0,2.929922,4.9067
 39,0.377226\H,0,2.2008,5.421197,-1.125895\H,0,2.265243,-2.731613,0.876
 496\H,0,3.433062,-1.441606,1.168484\H,0,3.367732,-0.995534,-1.394238\H
 ,0,2.478702,-2.498732,-1.54793\H,0,4.876373,-2.754915,-2.012393\H,0,5.
 299302,-2.144716,-0.407195\H,0,-2.57866,0.123889,-0.681845\H,0,-2.0481
 27,-1.552558,-0.797547\H,0,-2.682778,-0.218434,1.886636\H,0,-2.446893,
 -1.929478,1.59234\H,0,-4.812343,-1.306536,1.929863\H,0,-4.753004,-0.20
 3689,0.549723\\Version=ES64L-G09RevD.01\HF=-3522.4024756\RMSD=3.782e-0
 9\Dipole=0.718743,0.7146979,-0.1380628\Quadrupole=2.7718519,-18.466423
 9,15.6945721,6.881873,-7.6228657,-6.2821647\PG=C01 [X(C21H18F21N3O6)]\
 \@

 Writing a WFN file to "wang5/TAIC0/TAIC0_neu.wfn"


 ASKING FOR EFFICIENCY AND ADAPTABILITY IN THE SAME PROGRAM IS LIKE
 ASKING FOR A BEAUTIFUL AND MODEST WIFE ...
 WE'LL PROBABLY HAVE TO SETTLE FOR ONE OR THE OTHER.

             -- THE PSYCHOLOGY OF COMPUTER PROGRAMMING
                GERALD M. WEINBERG
 Job cpu time:       0 days  0 hours 31 minutes  1.7 seconds.
 File lengths (MBytes):  RWF=    869 Int=      0 D2E=      0 Chk=     28 Scr=      1
 Normal termination of Gaussian 09 at Sun Feb  2 05:01:05 2025.
