 Entering Gaussian System, Link 0=g09
 Initial command:
 /home/k0335/k033513/app/g09/l1.exe "/home/k0335/k033513/app/g09/scratch/Gau-247997.inp" -scrdir="/home/k0335/k033513/app/g09/scratch/"
 Default is to use a total of  36 processors:
                               36 via shared-memory
                                1 via Linda
 Entering Link 1 = /home/k0335/k033513/app/g09/l1.exe PID=    247998.
  
 Copyright (c) 1988,1990,1992,1993,1995,1998,2003,2009,2013,
            Gaussian, Inc.  All Rights Reserved.
  
 This is part of the Gaussian(R) 09 program.  It is based on
 the Gaussian(R) 03 system (copyright 2003, Gaussian, Inc.),
 the Gaussian(R) 98 system (copyright 1998, Gaussian, Inc.),
 the Gaussian(R) 94 system (copyright 1995, Gaussian, Inc.),
 the Gaussian 92(TM) system (copyright 1992, Gaussian, Inc.),
 the Gaussian 90(TM) system (copyright 1990, Gaussian, Inc.),
 the Gaussian 88(TM) system (copyright 1988, Gaussian, Inc.),
 the Gaussian 86(TM) system (copyright 1986, Carnegie Mellon
 University), and the Gaussian 82(TM) system (copyright 1983,
 Carnegie Mellon University). Gaussian is a federally registered
 trademark of Gaussian, Inc.
  
 This software contains proprietary and confidential information,
 including trade secrets, belonging to Gaussian, Inc.
  
 This software is provided under written license and may be
 used, copied, transmitted, or stored only in accord with that
 written license.
  
 The following legend is applicable only to US Government
 contracts under FAR:
  
                    RESTRICTED RIGHTS LEGEND
  
 Use, reproduction and disclosure by the US Government is
 subject to restrictions as set forth in subparagraphs (a)
 and (c) of the Commercial Computer Software - Restricted
 Rights clause in FAR 52.227-19.
  
 Gaussian, Inc.
 340 Quinnipiac St., Bldg. 40, Wallingford CT 06492
  
  
 ---------------------------------------------------------------
 Warning -- This program may not be used in any manner that
 competes with the business of Gaussian, Inc. or will provide
 assistance to any competitor of Gaussian, Inc.  The licensee
 of this program is prohibited from giving any competitor of
 Gaussian, Inc. access to this program.  By using this program,
 the user acknowledges that Gaussian, Inc. is engaged in the
 business of creating and licensing software in the field of
 computational chemistry and represents and warrants to the
 licensee that it is not a competitor of Gaussian, Inc. and that
 it will not use this program in any manner prohibited above.
 ---------------------------------------------------------------
  

 Cite this work as:
 Gaussian 09, Revision D.01,
 M. J. Frisch, G. W. Trucks, H. B. Schlegel, G. E. Scuseria, 
 M. A. Robb, J. R. Cheeseman, G. Scalmani, V. Barone, B. Mennucci, 
 G. A. Petersson, H. Nakatsuji, M. Caricato, X. Li, H. P. Hratchian, 
 A. F. Izmaylov, J. Bloino, G. Zheng, J. L. Sonnenberg, M. Hada, 
 M. Ehara, K. Toyota, R. Fukuda, J. Hasegawa, M. Ishida, T. Nakajima, 
 Y. Honda, O. Kitao, H. Nakai, T. Vreven, J. A. Montgomery, Jr., 
 J. E. Peralta, F. Ogliaro, M. Bearpark, J. J. Heyd, E. Brothers, 
 K. N. Kudin, V. N. Staroverov, T. Keith, R. Kobayashi, J. Normand, 
 K. Raghavachari, A. Rendell, J. C. Burant, S. S. Iyengar, J. Tomasi, 
 M. Cossi, N. Rega, J. M. Millam, M. Klene, J. E. Knox, J. B. Cross, 
 V. Bakken, C. Adamo, J. Jaramillo, R. Gomperts, R. E. Stratmann, 
 O. Yazyev, A. J. Austin, R. Cammi, C. Pomelli, J. W. Ochterski, 
 R. L. Martin, K. Morokuma, V. G. Zakrzewski, G. A. Voth, 
 P. Salvador, J. J. Dannenberg, S. Dapprich, A. D. Daniels, 
 O. Farkas, J. B. Foresman, J. V. Ortiz, J. Cioslowski, 
 and D. J. Fox, Gaussian, Inc., Wallingford CT, 2013.
 
 ******************************************
 Gaussian 09:  ES64L-G09RevD.01 24-Apr-2013
                 4-Mar-2024 
 ******************************************
 %nprocshared=24
 Will use up to   24 processors via shared memory.
 %mem=40GB
 %rwf=A105268360/A105268360_0.rwf
 %nosave
 %chk=A105268360/A105268360_0.chk
 ----------------------------------------------------------------------
 #p CAM-B3LYP/6-31G(d,p) SCRF=(PCM,Solvent=Generic,Read) NoSymm out=wfn
 ----------------------------------------------------------------------
 1/38=1,40=2/1;
 2/12=2,15=1,17=6,18=5,40=1/2;
 3/5=1,6=6,7=101,11=2,16=1,25=1,30=1,70=2203,72=-2,74=-40/1,2,3;
 4//1;
 5/5=2,38=5/2;
 6/7=2,8=2,9=2,10=2,28=1/1;
 99/5=1,6=100,9=1/99;
 Leave Link    1 at Mon Mar  4 23:12:19 2024, MaxMem=  5368709120 cpu:         0.9
 (Enter /home/k0335/k033513/app/g09/l101.exe)
 ------------------
 Title A105268360_0
 ------------------
 Symbolic Z-matrix:
 Charge =  0 Multiplicity = 1
 C                    -1.20309  -1.95606  -2.69913 
 C                    -2.14981  -1.91986  -1.53405 
 C                    -3.47444  -2.0504   -1.74383 
 C                    -1.56621  -1.88505  -0.13913 
 N                    -0.69706  -0.72902   0.14468 
 C                    -1.31533   0.63375   0.34886 
 C                    -0.39234   1.82431  -0.08401 
 C                     0.95631   1.40237  -0.67424 
 C                     1.89136   0.71154   0.35178 
 N                     1.21508  -0.09351   1.39289 
 C                     0.24675  -1.0449    1.15176 
 O                     0.1523   -2.05605   1.84713 
 C                     1.56748   0.14842   2.79231 
 C                     2.9429   -0.35491   3.14868 
 C                     3.9946    0.47317   3.283 
 C                     3.05925  -1.82191   3.45383 
 C                     3.12181   0.00517  -0.29159 
 C                     2.92421  -1.19073  -1.19786 
 C                     2.63619  -2.45745  -0.68034 
 C                     2.49758  -3.56165  -1.52511 
 C                     2.65175  -3.41456  -2.90075 
 C                     2.93704  -2.15887  -3.43269 
 C                     3.07783  -1.05716  -2.58628 
 O                     0.7234    0.64751  -1.85647 
 O                    -0.18094   2.70598   1.02937 
 C                    -2.73284   0.8392   -0.25311 
 C                    -3.4123    2.15173   0.08794 
 C                    -3.84445   3.00379  -0.94106 
 C                    -4.48237   4.20887  -0.64422 
 C                    -4.69869   4.57426   0.68208 
 C                    -4.28514   3.7317    1.71348 
 C                    -3.65065   2.52314   1.41876 
 H                    -0.31518  -2.54691  -2.45864 
 H                    -0.90102  -0.94581  -2.98193 
 H                    -1.66556  -2.4165   -3.58059 
 H                    -3.88582  -2.12673  -2.74805 
 H                    -4.18632  -2.08862  -0.92154 
 H                    -0.97876  -2.80901  -0.04158 
 H                    -2.33773  -1.92796   0.64151 
 H                    -1.44793   0.70833   1.43786 
 H                    -0.90175   2.40817  -0.8601 
 H                     1.47842   2.30902  -1.00728 
 H                     2.32045   1.55437   0.91337 
 H                     0.82439  -0.31028   3.45776 
 H                     1.48563   1.22929   2.96736 
 H                     3.90049   1.53865   3.10304 
 H                     4.97314   0.10837   3.57807 
 H                     2.37665  -2.09574   4.26512 
 H                     2.81143  -2.42449   2.57719 
 H                     4.07201  -2.09341   3.76908 
 H                     3.81351  -0.31242   0.49629 
 H                     3.68079   0.76759  -0.85136 
 H                     2.52519  -2.60247   0.39078 
 H                     2.27994  -4.54065  -1.1025 
 H                     2.5473   -4.27675  -3.5556 
 H                     3.05524  -2.03358  -4.50467 
 H                     3.29522  -0.08346  -3.02068 
 H                     0.4791   -0.24821  -1.54381 
 H                    -0.23398   3.61823   0.68523 
 H                    -2.6733    0.74374  -1.34339 
 H                    -3.40865   0.05803   0.10901 
 H                    -3.68624   2.73505  -1.98337 
 H                    -4.81326   4.86116  -1.4494 
 H                    -5.1949    5.51393   0.91315 
 H                    -4.45626   4.0183    2.74757 
 H                    -3.34243   1.87794   2.2394 
 
 NAtoms=     66 NQM=       66 NQMF=       0 NMMI=      0 NMMIF=      0
                NMic=       0 NMicF=      0.
                    Isotopes and Nuclear Properties:
 (Nuclear quadrupole moments (NQMom) in fm**2, nuclear magnetic moments (NMagM)
  in nuclear magnetons)

  Atom         1           2           3           4           5           6           7           8           9          10
 IAtWgt=          12          12          12          12          14          12          12          12          12          14
 AtmWgt=  12.0000000  12.0000000  12.0000000  12.0000000  14.0030740  12.0000000  12.0000000  12.0000000  12.0000000  14.0030740
 NucSpn=           0           0           0           0           2           0           0           0           0           2
 AtZEff=   0.0000000   0.0000000   0.0000000   0.0000000   0.0000000   0.0000000   0.0000000   0.0000000   0.0000000   0.0000000
 NQMom=    0.0000000   0.0000000   0.0000000   0.0000000   2.0440000   0.0000000   0.0000000   0.0000000   0.0000000   2.0440000
 NMagM=    0.0000000   0.0000000   0.0000000   0.0000000   0.4037610   0.0000000   0.0000000   0.0000000   0.0000000   0.4037610
 AtZNuc=   6.0000000   6.0000000   6.0000000   6.0000000   7.0000000   6.0000000   6.0000000   6.0000000   6.0000000   7.0000000

  Atom        11          12          13          14          15          16          17          18          19          20
 IAtWgt=          12          16          12          12          12          12          12          12          12          12
 AtmWgt=  12.0000000  15.9949146  12.0000000  12.0000000  12.0000000  12.0000000  12.0000000  12.0000000  12.0000000  12.0000000
 NucSpn=           0           0           0           0           0           0           0           0           0           0
 AtZEff=   0.0000000   0.0000000   0.0000000   0.0000000   0.0000000   0.0000000   0.0000000   0.0000000   0.0000000   0.0000000
 NQMom=    0.0000000   0.0000000   0.0000000   0.0000000   0.0000000   0.0000000   0.0000000   0.0000000   0.0000000   0.0000000
 NMagM=    0.0000000   0.0000000   0.0000000   0.0000000   0.0000000   0.0000000   0.0000000   0.0000000   0.0000000   0.0000000
 AtZNuc=   6.0000000   8.0000000   6.0000000   6.0000000   6.0000000   6.0000000   6.0000000   6.0000000   6.0000000   6.0000000

  Atom        21          22          23          24          25          26          27          28          29          30
 IAtWgt=          12          12          12          16          16          12          12          12          12          12
 AtmWgt=  12.0000000  12.0000000  12.0000000  15.9949146  15.9949146  12.0000000  12.0000000  12.0000000  12.0000000  12.0000000
 NucSpn=           0           0           0           0           0           0           0           0           0           0
 AtZEff=   0.0000000   0.0000000   0.0000000   0.0000000   0.0000000   0.0000000   0.0000000   0.0000000   0.0000000   0.0000000
 NQMom=    0.0000000   0.0000000   0.0000000   0.0000000   0.0000000   0.0000000   0.0000000   0.0000000   0.0000000   0.0000000
 NMagM=    0.0000000   0.0000000   0.0000000   0.0000000   0.0000000   0.0000000   0.0000000   0.0000000   0.0000000   0.0000000
 AtZNuc=   6.0000000   6.0000000   6.0000000   8.0000000   8.0000000   6.0000000   6.0000000   6.0000000   6.0000000   6.0000000

  Atom        31          32          33          34          35          36          37          38          39          40
 IAtWgt=          12          12           1           1           1           1           1           1           1           1
 AtmWgt=  12.0000000  12.0000000   1.0078250   1.0078250   1.0078250   1.0078250   1.0078250   1.0078250   1.0078250   1.0078250
 NucSpn=           0           0           1           1           1           1           1           1           1           1
 AtZEff=   0.0000000   0.0000000   0.0000000   0.0000000   0.0000000   0.0000000   0.0000000   0.0000000   0.0000000   0.0000000
 NQMom=    0.0000000   0.0000000   0.0000000   0.0000000   0.0000000   0.0000000   0.0000000   0.0000000   0.0000000   0.0000000
 NMagM=    0.0000000   0.0000000   2.7928460   2.7928460   2.7928460   2.7928460   2.7928460   2.7928460   2.7928460   2.7928460
 AtZNuc=   6.0000000   6.0000000   1.0000000   1.0000000   1.0000000   1.0000000   1.0000000   1.0000000   1.0000000   1.0000000

  Atom        41          42          43          44          45          46          47          48          49          50
 IAtWgt=           1           1           1           1           1           1           1           1           1           1
 AtmWgt=   1.0078250   1.0078250   1.0078250   1.0078250   1.0078250   1.0078250   1.0078250   1.0078250   1.0078250   1.0078250
 NucSpn=           1           1           1           1           1           1           1           1           1           1
 AtZEff=   0.0000000   0.0000000   0.0000000   0.0000000   0.0000000   0.0000000   0.0000000   0.0000000   0.0000000   0.0000000
 NQMom=    0.0000000   0.0000000   0.0000000   0.0000000   0.0000000   0.0000000   0.0000000   0.0000000   0.0000000   0.0000000
 NMagM=    2.7928460   2.7928460   2.7928460   2.7928460   2.7928460   2.7928460   2.7928460   2.7928460   2.7928460   2.7928460
 AtZNuc=   1.0000000   1.0000000   1.0000000   1.0000000   1.0000000   1.0000000   1.0000000   1.0000000   1.0000000   1.0000000

  Atom        51          52          53          54          55          56          57          58          59          60
 IAtWgt=           1           1           1           1           1           1           1           1           1           1
 AtmWgt=   1.0078250   1.0078250   1.0078250   1.0078250   1.0078250   1.0078250   1.0078250   1.0078250   1.0078250   1.0078250
 NucSpn=           1           1           1           1           1           1           1           1           1           1
 AtZEff=   0.0000000   0.0000000   0.0000000   0.0000000   0.0000000   0.0000000   0.0000000   0.0000000   0.0000000   0.0000000
 NQMom=    0.0000000   0.0000000   0.0000000   0.0000000   0.0000000   0.0000000   0.0000000   0.0000000   0.0000000   0.0000000
 NMagM=    2.7928460   2.7928460   2.7928460   2.7928460   2.7928460   2.7928460   2.7928460   2.7928460   2.7928460   2.7928460
 AtZNuc=   1.0000000   1.0000000   1.0000000   1.0000000   1.0000000   1.0000000   1.0000000   1.0000000   1.0000000   1.0000000

  Atom        61          62          63          64          65          66
 IAtWgt=           1           1           1           1           1           1
 AtmWgt=   1.0078250   1.0078250   1.0078250   1.0078250   1.0078250   1.0078250
 NucSpn=           1           1           1           1           1           1
 AtZEff=   0.0000000   0.0000000   0.0000000   0.0000000   0.0000000   0.0000000
 NQMom=    0.0000000   0.0000000   0.0000000   0.0000000   0.0000000   0.0000000
 NMagM=    2.7928460   2.7928460   2.7928460   2.7928460   2.7928460   2.7928460
 AtZNuc=   1.0000000   1.0000000   1.0000000   1.0000000   1.0000000   1.0000000
 Leave Link  101 at Mon Mar  4 23:12:19 2024, MaxMem=  5368709120 cpu:         1.0
 (Enter /home/k0335/k033513/app/g09/l202.exe)
 Symmetry turned off by external request.
 Stoichiometry    C27H34N2O3
 Framework group  C1[X(C27H34N2O3)]
 Deg. of freedom   192
 Full point group                 C1      NOp   1
                          Input orientation:                          
 ---------------------------------------------------------------------
 Center     Atomic      Atomic             Coordinates (Angstroms)
 Number     Number       Type             X           Y           Z
 ---------------------------------------------------------------------
      1          6           0       -1.203088   -1.956057   -2.699129
      2          6           0       -2.149808   -1.919863   -1.534051
      3          6           0       -3.474436   -2.050399   -1.743826
      4          6           0       -1.566210   -1.885050   -0.139125
      5          7           0       -0.697063   -0.729020    0.144676
      6          6           0       -1.315327    0.633754    0.348855
      7          6           0       -0.392340    1.824310   -0.084010
      8          6           0        0.956313    1.402369   -0.674238
      9          6           0        1.891358    0.711538    0.351775
     10          7           0        1.215081   -0.093506    1.392886
     11          6           0        0.246751   -1.044901    1.151757
     12          8           0        0.152296   -2.056047    1.847132
     13          6           0        1.567482    0.148417    2.792313
     14          6           0        2.942904   -0.354914    3.148684
     15          6           0        3.994597    0.473169    3.283002
     16          6           0        3.059245   -1.821908    3.453827
     17          6           0        3.121813    0.005172   -0.291591
     18          6           0        2.924207   -1.190734   -1.197860
     19          6           0        2.636185   -2.457449   -0.680341
     20          6           0        2.497576   -3.561645   -1.525107
     21          6           0        2.651746   -3.414555   -2.900749
     22          6           0        2.937042   -2.158872   -3.432690
     23          6           0        3.077826   -1.057159   -2.586283
     24          8           0        0.723404    0.647507   -1.856465
     25          8           0       -0.180944    2.705980    1.029371
     26          6           0       -2.732841    0.839200   -0.253112
     27          6           0       -3.412297    2.151730    0.087941
     28          6           0       -3.844450    3.003793   -0.941060
     29          6           0       -4.482373    4.208875   -0.644221
     30          6           0       -4.698691    4.574259    0.682084
     31          6           0       -4.285142    3.731698    1.713482
     32          6           0       -3.650646    2.523137    1.418763
     33          1           0       -0.315183   -2.546910   -2.458641
     34          1           0       -0.901024   -0.945808   -2.981926
     35          1           0       -1.665564   -2.416496   -3.580590
     36          1           0       -3.885815   -2.126726   -2.748049
     37          1           0       -4.186317   -2.088622   -0.921537
     38          1           0       -0.978762   -2.809008   -0.041577
     39          1           0       -2.337727   -1.927963    0.641506
     40          1           0       -1.447925    0.708333    1.437863
     41          1           0       -0.901751    2.408168   -0.860099
     42          1           0        1.478424    2.309020   -1.007285
     43          1           0        2.320455    1.554371    0.913366
     44          1           0        0.824390   -0.310283    3.457762
     45          1           0        1.485631    1.229294    2.967355
     46          1           0        3.900494    1.538646    3.103038
     47          1           0        4.973141    0.108374    3.578073
     48          1           0        2.376651   -2.095738    4.265116
     49          1           0        2.811434   -2.424486    2.577190
     50          1           0        4.072014   -2.093413    3.769078
     51          1           0        3.813509   -0.312422    0.496285
     52          1           0        3.680790    0.767586   -0.851355
     53          1           0        2.525194   -2.602465    0.390777
     54          1           0        2.279943   -4.540651   -1.102495
     55          1           0        2.547298   -4.276755   -3.555604
     56          1           0        3.055235   -2.033584   -4.504670
     57          1           0        3.295217   -0.083462   -3.020676
     58          1           0        0.479100   -0.248208   -1.543810
     59          1           0       -0.233978    3.618229    0.685233
     60          1           0       -2.673303    0.743742   -1.343386
     61          1           0       -3.408651    0.058032    0.109005
     62          1           0       -3.686242    2.735047   -1.983366
     63          1           0       -4.813256    4.861155   -1.449397
     64          1           0       -5.194902    5.513931    0.913150
     65          1           0       -4.456263    4.018304    2.747573
     66          1           0       -3.342428    1.877941    2.239403
 ---------------------------------------------------------------------
 Rotational constants (GHZ):      0.2025991      0.1044261      0.0861293
 Leave Link  202 at Mon Mar  4 23:12:20 2024, MaxMem=  5368709120 cpu:         0.1
 (Enter /home/k0335/k033513/app/g09/l301.exe)
 Standard basis: 6-31G(d,p) (6D, 7F)
 Ernie: Thresh=  0.10000D-02 Tol=  0.10000D-05 Strict=F.
   650 basis functions,  1134 primitive gaussians,   650 cartesian basis functions
   117 alpha electrons      117 beta electrons
       nuclear repulsion energy      3477.6457114768 Hartrees.
 IExCor=20419 DFT=T Ex+Corr=CAM-B3LYP ExCW=0 ScaHFX=  1.000000
 ScaDFX=  1.000000  1.000000  1.000000  0.810000 ScalE2=  1.000000  1.000000
 IRadAn=      0 IRanWt=     -1 IRanGd=            0 ICorTp=0 IEmpDi=  4
  HFx wShort=  0.000000 wLong=  0.330000 cFull=  0.190000 cShort=  0.000000 cLong=  0.460000
  DFx wShort=  0.000000 wLong=  0.330000 cFull=  0.190000 cShort=  0.000000 cLong=  0.460000
 NAtoms=   66 NActive=   66 NUniq=   66 SFac= 1.00D+00 NAtFMM=   60 NAOKFM=T Big=T
 Integral buffers will be    131072 words long.
 Raffenetti 2 integral format.
 Two-electron integral symmetry is turned off.
 Using the following non-standard input for PCM:
 eps=2.05
 --- end of non-standard input.
 ------------------------------------------------------------------------------
 Polarizable Continuum Model (PCM)
 =================================
 Model                : PCM (using non-symmetric T matrix).
 Atomic radii         : UFF (Universal Force Field).
 Polarization charges : Total charges.
 Charge compensation  : None.
 Solution method      : On-the-fly selection.
 Cavity type          : Scaled VdW (van der Waals Surface) (Alpha=1.100).
 Cavity algorithm     : GePol (No added spheres)
                        Default sphere list used, NSphG=   66.
                        Lebedev-Laikov grids with approx.  5.0 points / Ang**2.
                        Smoothing algorithm: Karplus/York (Gamma=1.0000).
                        Polarization charges: spherical gaussians, with
                                              point-specific exponents (IZeta= 3).
                        Self-potential: point-specific (ISelfS= 7).
                        Self-field    : sphere-specific E.n sum rule (ISelfD= 2).
 Solvent              : Generic,
                        Eps                           =   2.050000
                        Eps(infinity)                 =   0.000000
                        RSolv                         =   0.000000 Ang.
                        Molar volume                  =   0.000000 cm**3/mol
                        Thermal expansion coefficient =   0.000000 K**-1
                        Absolute temperature          = 298.150000 K
                        Numeral density               =   0.000000 Ang**-3
                        Hydrogen bond acidity         =   0.000000
                        Hydrogen bond basicity        =   0.000000
                        Surface tension at interface  =   0.000000 (cal/mol)*Ang**-2
                        Carbon aromaticity            =   0.000000
                        Electronegative halogenicity  =   0.000000
 ------------------------------------------------------------------------------
 GePol: Number of generator spheres                  =      66
 GePol: Total number of spheres                      =      66
 GePol: Number of exposed spheres                    =      66 (100.00%)
 GePol: Number of points                             =    4017
 GePol: Average weight of points                     =       0.13
 GePol: Minimum weight of points                     =   0.16D-09
 GePol: Maximum weight of points                     =    0.20577
 GePol: Number of points with low weight             =     335
 GePol: Fraction of low-weight points (<1% of avg)   =       8.34%
 GePol: Cavity surface area                          =    513.654 Ang**2
 GePol: Cavity volume                                =    629.889 Ang**3
 Leave Link  301 at Mon Mar  4 23:12:21 2024, MaxMem=  5368709120 cpu:         0.8
 (Enter /home/k0335/k033513/app/g09/l302.exe)
 NPDir=0 NMtPBC=     1 NCelOv=     1 NCel=       1 NClECP=     1 NCelD=      1
         NCelK=      1 NCelE2=     1 NClLst=     1 CellRange=     0.0.
 One-electron integrals computed using PRISM.
 NBasis=   650 RedAO= T EigKep=  4.40D-04  NBF=   650
 NBsUse=   650 1.00D-06 EigRej= -1.00D+00 NBFU=   650
 Precomputing XC quadrature grid using
 IXCGrd= 4 IRadAn=           0 IRanWt=          -1 IRanGd=           0 AccXCQ= 0.00D+00.
 Generated NRdTot=       0 NPtTot=           0 NUsed=           0 NTot=          32
 NSgBfM=   612   612   613   616   617 MxSgAt=    66 MxSgA2=    66.
 Leave Link  302 at Mon Mar  4 23:12:22 2024, MaxMem=  5368709120 cpu:        16.1
 (Enter /home/k0335/k033513/app/g09/l303.exe)
 DipDrv:  MaxL=1.
 Leave Link  303 at Mon Mar  4 23:12:23 2024, MaxMem=  5368709120 cpu:         1.1
 (Enter /home/k0335/k033513/app/g09/l401.exe)
 ExpMin= 1.61D-01 ExpMax= 5.48D+03 ExpMxC= 8.25D+02 IAcc=1 IRadAn=         1 AccDes= 0.00D+00
 Harris functional with IExCor=20419 and IRadAn=       1 diagonalized for initial guess.
 HarFok:  IExCor=20419 AccDes= 0.00D+00 IRadAn=         1 IDoV= 1 UseB2=F ITyADJ=14
 ICtDFT=  3500011 ScaDFX=  1.000000  1.000000  1.000000  1.000000
 FoFCou: FMM=F IPFlag=           0 FMFlag=      100000 FMFlg1=        2001
         NFxFlg=           0 DoJE=T BraDBF=F KetDBF=T FulRan=T
         wScrn=  0.000000 ICntrl=     500 IOpCl=  0 I1Cent=   200000004 NGrid=           0
         NMat0=    1 NMatS0=      1 NMatT0=    0 NMatD0=    1 NMtDS0=    0 NMtDT0=    0
 Symmetry not used in FoFCou.
 Harris En= -1328.84967701126    
 JPrj=0 DoOrth=F DoCkMO=F.
 Leave Link  401 at Mon Mar  4 23:12:25 2024, MaxMem=  5368709120 cpu:        19.7
 (Enter /home/k0335/k033513/app/g09/l502.exe)
 Closed shell SCF:
 Using DIIS extrapolation, IDIIS=  1040.
 Two-electron integral symmetry not used.
 IVT=     1305682 IEndB=     1305682 NGot=  5368709120 MDV=  5367843229
 LenX=  5367843229 LenY=  5367420079
 Requested convergence on RMS density matrix=1.00D-08 within 128 cycles.
 Requested convergence on MAX density matrix=1.00D-06.
 Requested convergence on             energy=1.00D-06.
 No special actions if energy rises.
 Fock matrices will be formed incrementally for  20 cycles.

 Cycle   1  Pass 1  IDiag  1:
 FoFJK:  IHMeth= 1 ICntrl=       0 DoSepK=T KAlg= 0 I1Cent=   0 FoldK=F
 IRaf=         1 NMat=   1 IRICut=       1 DoRegI=T DoRafI=F ISym2E= 0.
 FoFCou: FMM=T IPFlag=           0 FMFlag=      100000 FMFlg1=        2001
         NFxFlg=           0 DoJE=T BraDBF=F KetDBF=F FulRan=T
         wScrn=  0.000000 ICntrl=     500 IOpCl=  0 I1Cent=           0 NGrid=           0
         NMat0=    1 NMatS0=      1 NMatT0=    0 NMatD0=    1 NMtDS0=    0 NMtDT0=    0
 Symmetry not used in FoFCou.
 FMM levels:  10  Number of levels for PrismC:   9
 Inv3:  Mode=1 IEnd=    48408867.
 Iteration    1 A*A^-1 deviation from unit magnitude is 9.10D-15 for   4017.
 Iteration    1 A*A^-1 deviation from orthogonality  is 3.50D-15 for   3981   1993.
 Iteration    1 A^-1*A deviation from unit magnitude is 4.88D-15 for   3992.
 Iteration    1 A^-1*A deviation from orthogonality  is 5.00D-15 for   4017   1980.
 E= -1383.45670958992    
 DIIS: error= 5.73D-02 at cycle   1 NSaved=   1.
 NSaved= 1 IEnMin= 1 EnMin= -1383.45670958992     IErMin= 1 ErrMin= 5.73D-02
 ErrMax= 5.73D-02  0.00D+00 EMaxC= 1.00D-01 BMatC= 1.03D+00 BMatP= 1.03D+00
 IDIUse=3 WtCom= 4.27D-01 WtEn= 5.73D-01
 Coeff-Com:  0.100D+01
 Coeff-En:   0.100D+01
 Coeff:      0.100D+01
 Gap=     0.451 Goal=   None    Shift=    0.000
 GapD=    0.451 DampG=2.000 DampE=0.500 DampFc=1.0000 IDamp=-1.
 RMSDP=1.68D-03 MaxDP=9.62D-02              OVMax= 8.86D-02

 Cycle   2  Pass 1  IDiag  1:
 RMSU=  1.68D-03    CP:  9.97D-01
 E= -1383.59332355387     Delta-E=       -0.136613963948 Rises=F Damp=F
 DIIS: error= 9.09D-03 at cycle   2 NSaved=   2.
 NSaved= 2 IEnMin= 2 EnMin= -1383.59332355387     IErMin= 2 ErrMin= 9.09D-03
 ErrMax= 9.09D-03  0.00D+00 EMaxC= 1.00D-01 BMatC= 2.11D-01 BMatP= 1.03D+00
 IDIUse=3 WtCom= 9.09D-01 WtEn= 9.09D-02
 Coeff-Com:  0.243D+00 0.757D+00
 Coeff-En:   0.302D+00 0.698D+00
 Coeff:      0.248D+00 0.752D+00
 Gap=     0.419 Goal=   None    Shift=    0.000
 RMSDP=1.15D-03 MaxDP=9.14D-02 DE=-1.37D-01 OVMax= 1.06D-01

 Cycle   3  Pass 1  IDiag  1:
 RMSU=  7.75D-04    CP:  9.99D-01  4.92D-01
 E= -1383.68186139570     Delta-E=       -0.088537841824 Rises=F Damp=F
 DIIS: error= 7.63D-03 at cycle   3 NSaved=   3.
 NSaved= 3 IEnMin= 3 EnMin= -1383.68186139570     IErMin= 3 ErrMin= 7.63D-03
 ErrMax= 7.63D-03  0.00D+00 EMaxC= 1.00D-01 BMatC= 1.14D-01 BMatP= 2.11D-01
 IDIUse=3 WtCom= 9.24D-01 WtEn= 7.63D-02
 Coeff-Com:  0.252D-01 0.422D+00 0.553D+00
 Coeff-En:   0.000D+00 0.349D+00 0.651D+00
 Coeff:      0.233D-01 0.416D+00 0.560D+00
 Gap=     0.339 Goal=   None    Shift=    0.000
 RMSDP=5.72D-04 MaxDP=4.62D-02 DE=-8.85D-02 OVMax= 6.13D-02

 Cycle   4  Pass 1  IDiag  1:
 RMSU=  2.55D-04    CP:  9.98D-01  7.14D-01  5.47D-01
 E= -1383.77104899888     Delta-E=       -0.089187603186 Rises=F Damp=F
 DIIS: error= 1.89D-03 at cycle   4 NSaved=   4.
 NSaved= 4 IEnMin= 4 EnMin= -1383.77104899888     IErMin= 4 ErrMin= 1.89D-03
 ErrMax= 1.89D-03  0.00D+00 EMaxC= 1.00D-01 BMatC= 7.95D-03 BMatP= 1.14D-01
 IDIUse=3 WtCom= 9.81D-01 WtEn= 1.89D-02
 Coeff-Com:  0.407D-02 0.198D+00 0.318D+00 0.480D+00
 Coeff-En:   0.000D+00 0.000D+00 0.000D+00 0.100D+01
 Coeff:      0.399D-02 0.195D+00 0.312D+00 0.490D+00
 Gap=     0.323 Goal=   None    Shift=    0.000
 RMSDP=1.30D-04 MaxDP=1.68D-02 DE=-8.92D-02 OVMax= 1.84D-02

 Cycle   5  Pass 1  IDiag  1:
 RMSU=  6.38D-05    CP:  9.97D-01  7.14D-01  6.03D-01  5.90D-01
 E= -1383.77718457565     Delta-E=       -0.006135576770 Rises=F Damp=F
 DIIS: error= 3.02D-04 at cycle   5 NSaved=   5.
 NSaved= 5 IEnMin= 5 EnMin= -1383.77718457565     IErMin= 5 ErrMin= 3.02D-04
 ErrMax= 3.02D-04  0.00D+00 EMaxC= 1.00D-01 BMatC= 1.36D-04 BMatP= 7.95D-03
 IDIUse=3 WtCom= 9.97D-01 WtEn= 3.02D-03
 Coeff-Com:  0.435D-03 0.322D-01 0.599D-01 0.153D+00 0.754D+00
 Coeff-En:   0.000D+00 0.000D+00 0.000D+00 0.000D+00 0.100D+01
 Coeff:      0.434D-03 0.321D-01 0.597D-01 0.153D+00 0.755D+00
 Gap=     0.318 Goal=   None    Shift=    0.000
 RMSDP=2.03D-05 MaxDP=2.33D-03 DE=-6.14D-03 OVMax= 2.08D-03

 Cycle   6  Pass 1  IDiag  1:
 RMSU=  1.73D-05    CP:  9.97D-01  7.14D-01  6.06D-01  6.23D-01  9.10D-01
 E= -1383.77727067381     Delta-E=       -0.000086098156 Rises=F Damp=F
 DIIS: error= 8.82D-05 at cycle   6 NSaved=   6.
 NSaved= 6 IEnMin= 6 EnMin= -1383.77727067381     IErMin= 6 ErrMin= 8.82D-05
 ErrMax= 8.82D-05  0.00D+00 EMaxC= 1.00D-01 BMatC= 2.74D-05 BMatP= 1.36D-04
 IDIUse=1 WtCom= 1.00D+00 WtEn= 0.00D+00
 Coeff-Com: -0.491D-03-0.113D-01-0.129D-01 0.864D-02 0.354D+00 0.662D+00
 Coeff:     -0.491D-03-0.113D-01-0.129D-01 0.864D-02 0.354D+00 0.662D+00
 Gap=     0.318 Goal=   None    Shift=    0.000
 RMSDP=8.88D-06 MaxDP=5.66D-04 DE=-8.61D-05 OVMax= 8.35D-04

 Cycle   7  Pass 1  IDiag  1:
 RMSU=  5.07D-06    CP:  9.97D-01  7.15D-01  6.09D-01  6.36D-01  9.84D-01
                    CP:  7.86D-01
 E= -1383.77729493725     Delta-E=       -0.000024263438 Rises=F Damp=F
 DIIS: error= 1.74D-05 at cycle   7 NSaved=   7.
 NSaved= 7 IEnMin= 7 EnMin= -1383.77729493725     IErMin= 7 ErrMin= 1.74D-05
 ErrMax= 1.74D-05  0.00D+00 EMaxC= 1.00D-01 BMatC= 9.29D-07 BMatP= 2.74D-05
 IDIUse=1 WtCom= 1.00D+00 WtEn= 0.00D+00
 Coeff-Com: -0.209D-03-0.572D-02-0.726D-02-0.450D-02 0.901D-01 0.237D+00
 Coeff-Com:  0.690D+00
 Coeff:     -0.209D-03-0.572D-02-0.726D-02-0.450D-02 0.901D-01 0.237D+00
 Coeff:      0.690D+00
 Gap=     0.318 Goal=   None    Shift=    0.000
 RMSDP=2.09D-06 MaxDP=8.96D-05 DE=-2.43D-05 OVMax= 1.97D-04

 Cycle   8  Pass 1  IDiag  1:
 RMSU=  1.71D-06    CP:  9.97D-01  7.15D-01  6.09D-01  6.36D-01  9.98D-01
                    CP:  8.22D-01  9.53D-01
 E= -1383.77729587777     Delta-E=       -0.000000940528 Rises=F Damp=F
 DIIS: error= 6.81D-06 at cycle   8 NSaved=   8.
 NSaved= 8 IEnMin= 8 EnMin= -1383.77729587777     IErMin= 8 ErrMin= 6.81D-06
 ErrMax= 6.81D-06  0.00D+00 EMaxC= 1.00D-01 BMatC= 1.11D-07 BMatP= 9.29D-07
 IDIUse=1 WtCom= 1.00D+00 WtEn= 0.00D+00
 Coeff-Com: -0.123D-04-0.976D-03-0.133D-02-0.371D-02-0.122D-01 0.831D-02
 Coeff-Com:  0.239D+00 0.771D+00
 Coeff:     -0.123D-04-0.976D-03-0.133D-02-0.371D-02-0.122D-01 0.831D-02
 Coeff:      0.239D+00 0.771D+00
 Gap=     0.318 Goal=   None    Shift=    0.000
 RMSDP=9.04D-07 MaxDP=6.81D-05 DE=-9.41D-07 OVMax= 1.34D-04

 Cycle   9  Pass 1  IDiag  1:
 RMSU=  5.66D-07    CP:  9.97D-01  7.15D-01  6.10D-01  6.37D-01  1.00D+00
                    CP:  8.37D-01  1.06D+00  9.82D-01
 E= -1383.77729602956     Delta-E=       -0.000000151782 Rises=F Damp=F
 DIIS: error= 2.86D-06 at cycle   9 NSaved=   9.
 NSaved= 9 IEnMin= 9 EnMin= -1383.77729602956     IErMin= 9 ErrMin= 2.86D-06
 ErrMax= 2.86D-06  0.00D+00 EMaxC= 1.00D-01 BMatC= 1.84D-08 BMatP= 1.11D-07
 IDIUse=1 WtCom= 1.00D+00 WtEn= 0.00D+00
 Coeff-Com:  0.207D-04 0.308D-03 0.415D-03-0.975D-03-0.152D-01-0.247D-01
 Coeff-Com: -0.731D-02 0.304D+00 0.743D+00
 Coeff:      0.207D-04 0.308D-03 0.415D-03-0.975D-03-0.152D-01-0.247D-01
 Coeff:     -0.731D-02 0.304D+00 0.743D+00
 Gap=     0.318 Goal=   None    Shift=    0.000
 RMSDP=3.63D-07 MaxDP=1.99D-05 DE=-1.52D-07 OVMax= 5.84D-05

 Cycle  10  Pass 1  IDiag  1:
 RMSU=  2.10D-07    CP:  9.97D-01  7.15D-01  6.10D-01  6.36D-01  1.00D+00
                    CP:  8.45D-01  1.09D+00  1.09D+00  9.71D-01
 E= -1383.77729605353     Delta-E=       -0.000000023978 Rises=F Damp=F
 DIIS: error= 8.02D-07 at cycle  10 NSaved=  10.
 NSaved=10 IEnMin=10 EnMin= -1383.77729605353     IErMin=10 ErrMin= 8.02D-07
 ErrMax= 8.02D-07  0.00D+00 EMaxC= 1.00D-01 BMatC= 1.97D-09 BMatP= 1.84D-08
 IDIUse=1 WtCom= 1.00D+00 WtEn= 0.00D+00
 Coeff-Com:  0.889D-05 0.258D-03 0.366D-03 0.993D-05-0.489D-02-0.114D-01
 Coeff-Com: -0.336D-01 0.333D-01 0.291D+00 0.725D+00
 Coeff:      0.889D-05 0.258D-03 0.366D-03 0.993D-05-0.489D-02-0.114D-01
 Coeff:     -0.336D-01 0.333D-01 0.291D+00 0.725D+00
 Gap=     0.318 Goal=   None    Shift=    0.000
 RMSDP=1.19D-07 MaxDP=6.77D-06 DE=-2.40D-08 OVMax= 1.75D-05

 Cycle  11  Pass 1  IDiag  1:
 RMSU=  7.14D-08    CP:  9.97D-01  7.15D-01  6.10D-01  6.36D-01  1.00D+00
                    CP:  8.45D-01  1.10D+00  1.12D+00  1.07D+00  9.99D-01
 E= -1383.77729605614     Delta-E=       -0.000000002609 Rises=F Damp=F
 DIIS: error= 2.69D-07 at cycle  11 NSaved=  11.
 NSaved=11 IEnMin=11 EnMin= -1383.77729605614     IErMin=11 ErrMin= 2.69D-07
 ErrMax= 2.69D-07  0.00D+00 EMaxC= 1.00D-01 BMatC= 1.67D-10 BMatP= 1.97D-09
 IDIUse=1 WtCom= 1.00D+00 WtEn= 0.00D+00
 Coeff-Com:  0.220D-06 0.350D-04 0.594D-04 0.104D-03 0.724D-03 0.106D-03
 Coeff-Com: -0.811D-02-0.282D-01-0.123D-01 0.187D+00 0.861D+00
 Coeff:      0.220D-06 0.350D-04 0.594D-04 0.104D-03 0.724D-03 0.106D-03
 Coeff:     -0.811D-02-0.282D-01-0.123D-01 0.187D+00 0.861D+00
 Gap=     0.318 Goal=   None    Shift=    0.000
 RMSDP=4.64D-08 MaxDP=2.43D-06 DE=-2.61D-09 OVMax= 7.69D-06

 Cycle  12  Pass 1  IDiag  1:
 RMSU=  2.36D-08    CP:  9.97D-01  7.15D-01  6.10D-01  6.36D-01  1.00D+00
                    CP:  8.45D-01  1.10D+00  1.13D+00  1.11D+00  1.12D+00
                    CP:  9.95D-01
 E= -1383.77729605642     Delta-E=       -0.000000000276 Rises=F Damp=F
 DIIS: error= 1.15D-07 at cycle  12 NSaved=  12.
 NSaved=12 IEnMin=12 EnMin= -1383.77729605642     IErMin=12 ErrMin= 1.15D-07
 ErrMax= 1.15D-07  0.00D+00 EMaxC= 1.00D-01 BMatC= 2.96D-11 BMatP= 1.67D-10
 IDIUse=1 WtCom= 1.00D+00 WtEn= 0.00D+00
 Coeff-Com: -0.858D-06-0.134D-04-0.133D-04 0.389D-04 0.894D-03 0.136D-02
 Coeff-Com:  0.618D-03-0.151D-01-0.366D-01-0.838D-02 0.360D+00 0.698D+00
 Coeff:     -0.858D-06-0.134D-04-0.133D-04 0.389D-04 0.894D-03 0.136D-02
 Coeff:      0.618D-03-0.151D-01-0.366D-01-0.838D-02 0.360D+00 0.698D+00
 Gap=     0.318 Goal=   None    Shift=    0.000
 RMSDP=1.42D-08 MaxDP=7.61D-07 DE=-2.76D-10 OVMax= 2.06D-06

 Cycle  13  Pass 1  IDiag  1:
 RMSU=  8.36D-09    CP:  9.97D-01  7.15D-01  6.10D-01  6.36D-01  1.00D+00
                    CP:  8.45D-01  1.10D+00  1.13D+00  1.11D+00  1.15D+00
                    CP:  1.10D+00  9.58D-01
 E= -1383.77729605643     Delta-E=       -0.000000000012 Rises=F Damp=F
 DIIS: error= 4.06D-08 at cycle  13 NSaved=  13.
 NSaved=13 IEnMin=13 EnMin= -1383.77729605643     IErMin=13 ErrMin= 4.06D-08
 ErrMax= 4.06D-08  0.00D+00 EMaxC= 1.00D-01 BMatC= 3.09D-12 BMatP= 2.96D-11
 IDIUse=1 WtCom= 1.00D+00 WtEn= 0.00D+00
 Coeff-Com: -0.359D-06-0.911D-05-0.120D-04-0.127D-05 0.226D-03 0.447D-03
 Coeff-Com:  0.116D-02-0.221D-02-0.112D-01-0.279D-01 0.302D-01 0.257D+00
 Coeff-Com:  0.753D+00
 Coeff:     -0.359D-06-0.911D-05-0.120D-04-0.127D-05 0.226D-03 0.447D-03
 Coeff:      0.116D-02-0.221D-02-0.112D-01-0.279D-01 0.302D-01 0.257D+00
 Coeff:      0.753D+00
 Gap=     0.318 Goal=   None    Shift=    0.000
 RMSDP=4.83D-09 MaxDP=3.34D-07 DE=-1.18D-11 OVMax= 8.74D-07

 Error on total polarization charges =  0.00704
 SCF Done:  E(RCAM-B3LYP) =  -1383.77729606     A.U. after   13 cycles
            NFock= 13  Conv=0.48D-08     -V/T= 2.0095
 KE= 1.370753926826D+03 PE=-1.017094888227D+04 EE= 3.938771947913D+03
 Leave Link  502 at Mon Mar  4 23:13:44 2024, MaxMem=  5368709120 cpu:      1686.6
 (Enter /home/k0335/k033513/app/g09/l601.exe)
 Copying SCF densities to generalized density rwf, IOpCl= 0 IROHF=0.

 **********************************************************************

            Population analysis using the SCF density.

 **********************************************************************

 Alpha  occ. eigenvalues --  -19.22411 -19.20726 -19.18707 -14.43160 -14.42581
 Alpha  occ. eigenvalues --  -10.38326 -10.31285 -10.30977 -10.30918 -10.30484
 Alpha  occ. eigenvalues --  -10.29036 -10.28903 -10.27408 -10.26837 -10.26703
 Alpha  occ. eigenvalues --  -10.26611 -10.26426 -10.26409 -10.26404 -10.26330
 Alpha  occ. eigenvalues --  -10.26302 -10.26218 -10.25912 -10.25714 -10.25652
 Alpha  occ. eigenvalues --  -10.25587 -10.25430 -10.25402 -10.24720 -10.24591
 Alpha  occ. eigenvalues --  -10.24524 -10.24420  -1.12857  -1.10461  -1.08864
 Alpha  occ. eigenvalues --   -1.01563  -1.00097  -0.94024  -0.93262  -0.88874
 Alpha  occ. eigenvalues --   -0.88184  -0.87261  -0.86153  -0.83310  -0.82441
 Alpha  occ. eigenvalues --   -0.81633  -0.81238  -0.78479  -0.77454  -0.76147
 Alpha  occ. eigenvalues --   -0.75581  -0.74399  -0.72127  -0.70982  -0.68033
 Alpha  occ. eigenvalues --   -0.67239  -0.66756  -0.64914  -0.64495  -0.62618
 Alpha  occ. eigenvalues --   -0.61050  -0.59980  -0.58887  -0.58199  -0.57744
 Alpha  occ. eigenvalues --   -0.57465  -0.55967  -0.55160  -0.53717  -0.53222
 Alpha  occ. eigenvalues --   -0.52916  -0.52181  -0.51972  -0.51812  -0.51397
 Alpha  occ. eigenvalues --   -0.51173  -0.50879  -0.49742  -0.49628  -0.49106
 Alpha  occ. eigenvalues --   -0.48473  -0.48286  -0.47854  -0.47244  -0.47062
 Alpha  occ. eigenvalues --   -0.46527  -0.46452  -0.45412  -0.44877  -0.44174
 Alpha  occ. eigenvalues --   -0.43565  -0.43261  -0.42721  -0.42218  -0.42175
 Alpha  occ. eigenvalues --   -0.42035  -0.41737  -0.41189  -0.40836  -0.40578
 Alpha  occ. eigenvalues --   -0.40239  -0.40059  -0.39675  -0.39185  -0.38703
 Alpha  occ. eigenvalues --   -0.37829  -0.36399  -0.33701  -0.32301  -0.30892
 Alpha  occ. eigenvalues --   -0.30706  -0.30528  -0.29927  -0.29741  -0.29206
 Alpha  occ. eigenvalues --   -0.29093  -0.27623
 Alpha virt. eigenvalues --    0.04226   0.04547   0.05045   0.05145   0.06569
 Alpha virt. eigenvalues --    0.07139   0.07711   0.11008   0.12464   0.13804
 Alpha virt. eigenvalues --    0.14383   0.14549   0.15428   0.16003   0.16260
 Alpha virt. eigenvalues --    0.17484   0.17939   0.18306   0.18792   0.19317
 Alpha virt. eigenvalues --    0.19637   0.20370   0.20509   0.20816   0.20998
 Alpha virt. eigenvalues --    0.21441   0.21773   0.21836   0.22254   0.22506
 Alpha virt. eigenvalues --    0.22536   0.23150   0.23272   0.23622   0.23863
 Alpha virt. eigenvalues --    0.24576   0.24911   0.25186   0.25471   0.25772
 Alpha virt. eigenvalues --    0.25888   0.26788   0.27507   0.27934   0.28143
 Alpha virt. eigenvalues --    0.28428   0.28577   0.29488   0.29944   0.31101
 Alpha virt. eigenvalues --    0.31788   0.32624   0.32863   0.33842   0.34007
 Alpha virt. eigenvalues --    0.34823   0.36122   0.36125   0.37149   0.37534
 Alpha virt. eigenvalues --    0.37884   0.38227   0.38878   0.39331   0.40698
 Alpha virt. eigenvalues --    0.41118   0.41411   0.42233   0.42722   0.43434
 Alpha virt. eigenvalues --    0.43905   0.46191   0.47923   0.50906   0.52380
 Alpha virt. eigenvalues --    0.55075   0.55749   0.56467   0.56839   0.57267
 Alpha virt. eigenvalues --    0.57818   0.58182   0.58272   0.58989   0.59386
 Alpha virt. eigenvalues --    0.59666   0.60539   0.61046   0.61308   0.61600
 Alpha virt. eigenvalues --    0.62016   0.62248   0.62761   0.63295   0.63615
 Alpha virt. eigenvalues --    0.63858   0.64478   0.64776   0.65560   0.65687
 Alpha virt. eigenvalues --    0.65826   0.66289   0.67047   0.67339   0.67606
 Alpha virt. eigenvalues --    0.67888   0.68122   0.68400   0.68686   0.68938
 Alpha virt. eigenvalues --    0.69888   0.69948   0.70213   0.70769   0.71819
 Alpha virt. eigenvalues --    0.71962   0.72241   0.72589   0.72980   0.73847
 Alpha virt. eigenvalues --    0.74181   0.74633   0.75640   0.75651   0.76213
 Alpha virt. eigenvalues --    0.76772   0.77819   0.78128   0.79359   0.80713
 Alpha virt. eigenvalues --    0.81777   0.81979   0.82435   0.82948   0.84158
 Alpha virt. eigenvalues --    0.85087   0.85554   0.85998   0.86700   0.87078
 Alpha virt. eigenvalues --    0.87441   0.87806   0.87995   0.88312   0.88481
 Alpha virt. eigenvalues --    0.88582   0.89093   0.89385   0.89770   0.89880
 Alpha virt. eigenvalues --    0.90146   0.90384   0.90973   0.91761   0.92518
 Alpha virt. eigenvalues --    0.92593   0.93666   0.95033   0.95329   0.95537
 Alpha virt. eigenvalues --    0.95834   0.96003   0.96819   0.97425   0.97566
 Alpha virt. eigenvalues --    0.97793   0.98433   0.98800   0.99358   0.99702
 Alpha virt. eigenvalues --    1.00152   1.00778   1.01349   1.01857   1.02382
 Alpha virt. eigenvalues --    1.02664   1.03427   1.03631   1.04426   1.04666
 Alpha virt. eigenvalues --    1.05087   1.06173   1.07063   1.07843   1.09165
 Alpha virt. eigenvalues --    1.09772   1.10292   1.11166   1.12780   1.12921
 Alpha virt. eigenvalues --    1.13629   1.15379   1.16570   1.16793   1.17310
 Alpha virt. eigenvalues --    1.18106   1.18330   1.19324   1.20064   1.21457
 Alpha virt. eigenvalues --    1.22102   1.22459   1.22941   1.23489   1.24222
 Alpha virt. eigenvalues --    1.25141   1.27823   1.28093   1.28706   1.29983
 Alpha virt. eigenvalues --    1.30730   1.31477   1.31855   1.33900   1.34535
 Alpha virt. eigenvalues --    1.35147   1.36266   1.36717   1.37466   1.38232
 Alpha virt. eigenvalues --    1.38856   1.39876   1.41440   1.41552   1.41624
 Alpha virt. eigenvalues --    1.42523   1.43589   1.44872   1.46788   1.47679
 Alpha virt. eigenvalues --    1.48175   1.48748   1.49206   1.49241   1.49557
 Alpha virt. eigenvalues --    1.50277   1.50331   1.51258   1.51337   1.52448
 Alpha virt. eigenvalues --    1.52819   1.53889   1.54372   1.55177   1.56294
 Alpha virt. eigenvalues --    1.56539   1.59240   1.60390   1.60991   1.62383
 Alpha virt. eigenvalues --    1.64090   1.65969   1.67087   1.69238   1.70393
 Alpha virt. eigenvalues --    1.71673   1.72551   1.74687   1.75091   1.76353
 Alpha virt. eigenvalues --    1.77828   1.79302   1.79936   1.81124   1.81585
 Alpha virt. eigenvalues --    1.83181   1.84082   1.85380   1.85756   1.86153
 Alpha virt. eigenvalues --    1.86386   1.86719   1.87265   1.87691   1.88971
 Alpha virt. eigenvalues --    1.89151   1.90170   1.90997   1.91249   1.92114
 Alpha virt. eigenvalues --    1.92430   1.92793   1.93124   1.94046   1.95125
 Alpha virt. eigenvalues --    1.95370   1.96101   1.96644   1.96897   1.97553
 Alpha virt. eigenvalues --    1.97910   1.99321   2.00022   2.00305   2.00829
 Alpha virt. eigenvalues --    2.01204   2.02345   2.03044   2.03468   2.04339
 Alpha virt. eigenvalues --    2.05014   2.05117   2.05535   2.05895   2.06133
 Alpha virt. eigenvalues --    2.06618   2.06976   2.07774   2.07952   2.08406
 Alpha virt. eigenvalues --    2.09009   2.09163   2.09495   2.10118   2.11712
 Alpha virt. eigenvalues --    2.12725   2.13041   2.13832   2.14317   2.15290
 Alpha virt. eigenvalues --    2.15710   2.15921   2.16369   2.16596   2.17145
 Alpha virt. eigenvalues --    2.17573   2.18306   2.18617   2.19129   2.19367
 Alpha virt. eigenvalues --    2.21350   2.22048   2.23133   2.23738   2.23936
 Alpha virt. eigenvalues --    2.24481   2.25417   2.26775   2.26978   2.28668
 Alpha virt. eigenvalues --    2.29425   2.30086   2.30323   2.31709   2.32754
 Alpha virt. eigenvalues --    2.34709   2.35459   2.36105   2.36128   2.36781
 Alpha virt. eigenvalues --    2.37409   2.38014   2.38370   2.38763   2.39127
 Alpha virt. eigenvalues --    2.39906   2.40650   2.41752   2.42395   2.44121
 Alpha virt. eigenvalues --    2.44255   2.44814   2.44971   2.45752   2.46485
 Alpha virt. eigenvalues --    2.46659   2.47058   2.47813   2.48517   2.48888
 Alpha virt. eigenvalues --    2.49021   2.50070   2.50595   2.51628   2.52109
 Alpha virt. eigenvalues --    2.52702   2.52852   2.53174   2.54504   2.54978
 Alpha virt. eigenvalues --    2.56233   2.56588   2.57050   2.57552   2.58075
 Alpha virt. eigenvalues --    2.58354   2.59401   2.59549   2.60543   2.61136
 Alpha virt. eigenvalues --    2.61216   2.61711   2.63387   2.63786   2.64149
 Alpha virt. eigenvalues --    2.65071   2.65204   2.66641   2.66958   2.67189
 Alpha virt. eigenvalues --    2.67797   2.68749   2.68911   2.69071   2.70419
 Alpha virt. eigenvalues --    2.71203   2.71599   2.72023   2.72932   2.73347
 Alpha virt. eigenvalues --    2.73552   2.74132   2.75534   2.75972   2.76592
 Alpha virt. eigenvalues --    2.76929   2.77999   2.78804   2.79087   2.79570
 Alpha virt. eigenvalues --    2.80335   2.81446   2.82709   2.83007   2.83848
 Alpha virt. eigenvalues --    2.84266   2.84616   2.86254   2.87531   2.88202
 Alpha virt. eigenvalues --    2.88672   2.89115   2.90873   2.91088   2.92726
 Alpha virt. eigenvalues --    2.93320   2.94064   2.94210   2.94694   2.95399
 Alpha virt. eigenvalues --    2.96132   2.96655   2.96685   2.97186   2.98252
 Alpha virt. eigenvalues --    2.98768   3.02017   3.03426   3.03978   3.04424
 Alpha virt. eigenvalues --    3.06552   3.07383   3.10319   3.10388   3.12024
 Alpha virt. eigenvalues --    3.12866   3.13647   3.14590   3.14953   3.15815
 Alpha virt. eigenvalues --    3.17077   3.24576   3.27035   3.27466   3.28899
 Alpha virt. eigenvalues --    3.30090   3.31009   3.31269   3.31942   3.32407
 Alpha virt. eigenvalues --    3.34687   3.37368   3.38385   3.39362   3.40918
 Alpha virt. eigenvalues --    3.43677   3.44306   3.44839   3.45099   3.47973
 Alpha virt. eigenvalues --    3.49733   3.50493   3.50899   3.52134   3.52780
 Alpha virt. eigenvalues --    3.53438   3.54125   3.54551   3.55136   3.56276
 Alpha virt. eigenvalues --    3.58007   3.58562   3.59467   3.59994   3.60844
 Alpha virt. eigenvalues --    3.61923   3.67729   3.67825   3.74218   3.96106
 Alpha virt. eigenvalues --    3.97303   3.98671   4.14058   4.20473   4.21237
 Alpha virt. eigenvalues --    4.23856   4.24932   4.26416   4.29168   4.31586
 Alpha virt. eigenvalues --    4.34008   4.34351   4.35741   4.41597   4.44690
 Alpha virt. eigenvalues --    4.46550   4.50609   4.51621   4.52186   4.56027
 Alpha virt. eigenvalues --    4.56969   4.60401   4.65348   4.67735   4.72468
 Alpha virt. eigenvalues --    4.75339   4.76739   4.77380   4.84561   4.91260
 Alpha virt. eigenvalues --    4.93415   4.97652   5.00584
          Condensed to atoms (all electrons):
 Mulliken charges:
               1
     1  C   -0.388694
     2  C    0.141955
     3  C   -0.291469
     4  C   -0.080826
     5  N   -0.552718
     6  C    0.096359
     7  C    0.148486
     8  C    0.145180
     9  C    0.050710
    10  N   -0.478540
    11  C    0.725599
    12  O   -0.542266
    13  C   -0.109967
    14  C    0.156162
    15  C   -0.292240
    16  C   -0.356721
    17  C   -0.227185
    18  C    0.082904
    19  C   -0.135386
    20  C   -0.104021
    21  C   -0.101526
    22  C   -0.097984
    23  C   -0.103524
    24  O   -0.576813
    25  O   -0.565672
    26  C   -0.262760
    27  C    0.089920
    28  C   -0.137465
    29  C   -0.096085
    30  C   -0.099143
    31  C   -0.100907
    32  C   -0.112474
    33  H    0.123909
    34  H    0.136315
    35  H    0.112899
    36  H    0.097552
    37  H    0.094976
    38  H    0.148473
    39  H    0.105513
    40  H    0.123737
    41  H    0.105249
    42  H    0.095227
    43  H    0.118091
    44  H    0.133075
    45  H    0.123216
    46  H    0.093941
    47  H    0.099672
    48  H    0.120287
    49  H    0.135847
    50  H    0.103337
    51  H    0.122683
    52  H    0.100558
    53  H    0.105618
    54  H    0.097292
    55  H    0.092934
    56  H    0.093663
    57  H    0.091700
    58  H    0.341229
    59  H    0.326470
    60  H    0.123386
    61  H    0.124511
    62  H    0.096491
    63  H    0.097695
    64  H    0.095683
    65  H    0.098871
    66  H    0.097011
 Sum of Mulliken charges =   0.00000
 Mulliken charges with hydrogens summed into heavy atoms:
               1
     1  C   -0.015571
     2  C    0.141955
     3  C   -0.098941
     4  C    0.173160
     5  N   -0.552718
     6  C    0.220096
     7  C    0.253736
     8  C    0.240408
     9  C    0.168801
    10  N   -0.478540
    11  C    0.725599
    12  O   -0.542266
    13  C    0.146324
    14  C    0.156162
    15  C   -0.098627
    16  C    0.002750
    17  C   -0.003943
    18  C    0.082904
    19  C   -0.029768
    20  C   -0.006729
    21  C   -0.008592
    22  C   -0.004321
    23  C   -0.011825
    24  O   -0.235584
    25  O   -0.239202
    26  C   -0.014863
    27  C    0.089920
    28  C   -0.040974
    29  C    0.001610
    30  C   -0.003460
    31  C   -0.002036
    32  C   -0.015463
 Electronic spatial extent (au):  <R**2>=          13459.1662
 Charge=              0.0000 electrons
 Dipole moment (field-independent basis, Debye):
    X=             -0.6418    Y=              3.2238    Z=             -0.6628  Tot=              3.3533
 Quadrupole moment (field-independent basis, Debye-Ang):
   XX=           -187.1653   YY=           -179.1131   ZZ=           -187.7603
   XY=             -1.5897   XZ=              1.6552   YZ=              4.5439
 Traceless Quadrupole moment (field-independent basis, Debye-Ang):
   XX=             -2.4857   YY=              5.5665   ZZ=             -3.0807
   XY=             -1.5897   XZ=              1.6552   YZ=              4.5439
 Octapole moment (field-independent basis, Debye-Ang**2):
  XXX=             18.6783  YYY=             40.9354  ZZZ=            -14.2862  XYY=            -15.4644
  XXY=             26.3764  XXZ=             14.3515  XZZ=             -5.0151  YZZ=             -8.3409
  YYZ=            -22.2257  XYZ=             -5.3618
 Hexadecapole moment (field-independent basis, Debye-Ang**3):
 XXXX=          -8817.5687 YYYY=          -5275.9627 ZZZZ=          -4087.6756 XXXY=           1945.2164
 XXXZ=           -117.0480 YYYX=           1659.2129 YYYZ=           -604.7511 ZZZX=           -274.5688
 ZZZY=           -601.3673 XXYY=          -2222.0672 XXZZ=          -2023.9936 YYZZ=          -1588.6726
 XXYZ=           -258.8330 YYXZ=            -83.4299 ZZXY=            551.5722
 N-N= 3.477645711477D+03 E-N=-1.017094889444D+04  KE= 1.370753926826D+03
 No NMR shielding tensors so no spin-rotation constants.
 Leave Link  601 at Mon Mar  4 23:13:44 2024, MaxMem=  5368709120 cpu:         3.7
 (Enter /home/k0335/k033513/app/g09/l9999.exe)
 1\1\GINC-C18U02N1\SP\RCAM-B3LYP\6-31G(d,p)\C27H34N2O3\K033513\04-Mar-2
 024\0\\#p CAM-B3LYP/6-31G(d,p) SCRF=(PCM,Solvent=Generic,Read) NoSymm 
 out=wfn\\Title A105268360_0\\0,1\C,0,-1.203088,-1.956057,-2.699129\C,0
 ,-2.149808,-1.919863,-1.534051\C,0,-3.474436,-2.050399,-1.743826\C,0,-
 1.56621,-1.88505,-0.139125\N,0,-0.697063,-0.72902,0.144676\C,0,-1.3153
 27,0.633754,0.348855\C,0,-0.39234,1.82431,-0.08401\C,0,0.956313,1.4023
 69,-0.674238\C,0,1.891358,0.711538,0.351775\N,0,1.215081,-0.093506,1.3
 92886\C,0,0.246751,-1.044901,1.151757\O,0,0.152296,-2.056047,1.847132\
 C,0,1.567482,0.148417,2.792313\C,0,2.942904,-0.354914,3.148684\C,0,3.9
 94597,0.473169,3.283002\C,0,3.059245,-1.821908,3.453827\C,0,3.121813,0
 .005172,-0.291591\C,0,2.924207,-1.190734,-1.19786\C,0,2.636185,-2.4574
 49,-0.680341\C,0,2.497576,-3.561645,-1.525107\C,0,2.651746,-3.414555,-
 2.900749\C,0,2.937042,-2.158872,-3.43269\C,0,3.077826,-1.057159,-2.586
 283\O,0,0.723404,0.647507,-1.856465\O,0,-0.180944,2.70598,1.029371\C,0
 ,-2.732841,0.8392,-0.253112\C,0,-3.412297,2.15173,0.087941\C,0,-3.8444
 5,3.003793,-0.94106\C,0,-4.482373,4.208875,-0.644221\C,0,-4.698691,4.5
 74259,0.682084\C,0,-4.285142,3.731698,1.713482\C,0,-3.650646,2.523137,
 1.418763\H,0,-0.315183,-2.54691,-2.458641\H,0,-0.901024,-0.945808,-2.9
 81926\H,0,-1.665564,-2.416496,-3.58059\H,0,-3.885815,-2.126726,-2.7480
 49\H,0,-4.186317,-2.088622,-0.921537\H,0,-0.978762,-2.809008,-0.041577
 \H,0,-2.337727,-1.927963,0.641506\H,0,-1.447925,0.708333,1.437863\H,0,
 -0.901751,2.408168,-0.860099\H,0,1.478424,2.30902,-1.007285\H,0,2.3204
 55,1.554371,0.913366\H,0,0.82439,-0.310283,3.457762\H,0,1.485631,1.229
 294,2.967355\H,0,3.900494,1.538646,3.103038\H,0,4.973141,0.108374,3.57
 8073\H,0,2.376651,-2.095738,4.265116\H,0,2.811434,-2.424486,2.57719\H,
 0,4.072014,-2.093413,3.769078\H,0,3.813509,-0.312422,0.496285\H,0,3.68
 079,0.767586,-0.851355\H,0,2.525194,-2.602465,0.390777\H,0,2.279943,-4
 .540651,-1.102495\H,0,2.547298,-4.276755,-3.555604\H,0,3.055235,-2.033
 584,-4.50467\H,0,3.295217,-0.083462,-3.020676\H,0,0.4791,-0.248208,-1.
 54381\H,0,-0.233978,3.618229,0.685233\H,0,-2.673303,0.743742,-1.343386
 \H,0,-3.408651,0.058032,0.109005\H,0,-3.686242,2.735047,-1.983366\H,0,
 -4.813256,4.861155,-1.449397\H,0,-5.194902,5.513931,0.91315\H,0,-4.456
 263,4.018304,2.747573\H,0,-3.342428,1.877941,2.239403\\Version=ES64L-G
 09RevD.01\HF=-1383.7772961\RMSD=4.830e-09\Dipole=-0.2525219,1.2683555,
 -0.2607632\Quadrupole=-1.848088,4.138534,-2.290446,-1.1819116,1.230605
 4,3.378295\PG=C01 [X(C27H34N2O3)]\\@

 Writing a WFN file to "A105268360/A105268360_0.wfn"


 CLIMB THE MOUNTAINS AND GET THEIR GOOD TIDINGS.
 NATURE'S PEACE WILL FLOW INTO YOU AS SUNSHINE FLOWS INTO TREES.
 THE WINDS WILL BLOW THEIR OWN FRESHNESS INTO YOU, 
 AND CARES WILL DROP OFF LIKE AUTUMN LEAVES.

                                         -- JOHN MUIR
 Job cpu time:       0 days  0 hours 28 minutes 54.8 seconds.
 File lengths (MBytes):  RWF=    491 Int=      0 D2E=      0 Chk=     17 Scr=      1
 Normal termination of Gaussian 09 at Mon Mar  4 23:13:45 2024.
