 Entering Gaussian System, Link 0=g09
 Initial command:
 /home/k0335/k033513/app/g09/l1.exe "/home/k0335/k033513/app/g09/scratch/Gau-533882.inp" -scrdir="/home/k0335/k033513/app/g09/scratch/"
 Default is to use a total of  36 processors:
                               36 via shared-memory
                                1 via Linda
 Entering Link 1 = /home/k0335/k033513/app/g09/l1.exe PID=    533883.
  
 Copyright (c) 1988,1990,1992,1993,1995,1998,2003,2009,2013,
            Gaussian, Inc.  All Rights Reserved.
  
 This is part of the Gaussian(R) 09 program.  It is based on
 the Gaussian(R) 03 system (copyright 2003, Gaussian, Inc.),
 the Gaussian(R) 98 system (copyright 1998, Gaussian, Inc.),
 the Gaussian(R) 94 system (copyright 1995, Gaussian, Inc.),
 the Gaussian 92(TM) system (copyright 1992, Gaussian, Inc.),
 the Gaussian 90(TM) system (copyright 1990, Gaussian, Inc.),
 the Gaussian 88(TM) system (copyright 1988, Gaussian, Inc.),
 the Gaussian 86(TM) system (copyright 1986, Carnegie Mellon
 University), and the Gaussian 82(TM) system (copyright 1983,
 Carnegie Mellon University). Gaussian is a federally registered
 trademark of Gaussian, Inc.
  
 This software contains proprietary and confidential information,
 including trade secrets, belonging to Gaussian, Inc.
  
 This software is provided under written license and may be
 used, copied, transmitted, or stored only in accord with that
 written license.
  
 The following legend is applicable only to US Government
 contracts under FAR:
  
                    RESTRICTED RIGHTS LEGEND
  
 Use, reproduction and disclosure by the US Government is
 subject to restrictions as set forth in subparagraphs (a)
 and (c) of the Commercial Computer Software - Restricted
 Rights clause in FAR 52.227-19.
  
 Gaussian, Inc.
 340 Quinnipiac St., Bldg. 40, Wallingford CT 06492
  
  
 ---------------------------------------------------------------
 Warning -- This program may not be used in any manner that
 competes with the business of Gaussian, Inc. or will provide
 assistance to any competitor of Gaussian, Inc.  The licensee
 of this program is prohibited from giving any competitor of
 Gaussian, Inc. access to this program.  By using this program,
 the user acknowledges that Gaussian, Inc. is engaged in the
 business of creating and licensing software in the field of
 computational chemistry and represents and warrants to the
 licensee that it is not a competitor of Gaussian, Inc. and that
 it will not use this program in any manner prohibited above.
 ---------------------------------------------------------------
  

 Cite this work as:
 Gaussian 09, Revision D.01,
 M. J. Frisch, G. W. Trucks, H. B. Schlegel, G. E. Scuseria, 
 M. A. Robb, J. R. Cheeseman, G. Scalmani, V. Barone, B. Mennucci, 
 G. A. Petersson, H. Nakatsuji, M. Caricato, X. Li, H. P. Hratchian, 
 A. F. Izmaylov, J. Bloino, G. Zheng, J. L. Sonnenberg, M. Hada, 
 M. Ehara, K. Toyota, R. Fukuda, J. Hasegawa, M. Ishida, T. Nakajima, 
 Y. Honda, O. Kitao, H. Nakai, T. Vreven, J. A. Montgomery, Jr., 
 J. E. Peralta, F. Ogliaro, M. Bearpark, J. J. Heyd, E. Brothers, 
 K. N. Kudin, V. N. Staroverov, T. Keith, R. Kobayashi, J. Normand, 
 K. Raghavachari, A. Rendell, J. C. Burant, S. S. Iyengar, J. Tomasi, 
 M. Cossi, N. Rega, J. M. Millam, M. Klene, J. E. Knox, J. B. Cross, 
 V. Bakken, C. Adamo, J. Jaramillo, R. Gomperts, R. E. Stratmann, 
 O. Yazyev, A. J. Austin, R. Cammi, C. Pomelli, J. W. Ochterski, 
 R. L. Martin, K. Morokuma, V. G. Zakrzewski, G. A. Voth, 
 P. Salvador, J. J. Dannenberg, S. Dapprich, A. D. Daniels, 
 O. Farkas, J. B. Foresman, J. V. Ortiz, J. Cioslowski, 
 and D. J. Fox, Gaussian, Inc., Wallingford CT, 2013.
 
 ******************************************
 Gaussian 09:  ES64L-G09RevD.01 24-Apr-2013
                 5-Mar-2024 
 ******************************************
 %nprocshared=24
 Will use up to   24 processors via shared memory.
 %mem=40GB
 %rwf=A1462740670/A1462740670_0.rwf
 %nosave
 %chk=A1462740670/A1462740670_0.chk
 ----------------------------------------------------------------------
 #p CAM-B3LYP/6-31G(d,p) SCRF=(PCM,Solvent=Generic,Read) NoSymm out=wfn
 ----------------------------------------------------------------------
 1/38=1,40=2/1;
 2/12=2,15=1,17=6,18=5,40=1/2;
 3/5=1,6=6,7=101,11=2,16=1,25=1,30=1,70=2203,72=-2,74=-40/1,2,3;
 4//1;
 5/5=2,38=5/2;
 6/7=2,8=2,9=2,10=2,28=1/1;
 99/5=1,6=100,9=1/99;
 Leave Link    1 at Tue Mar  5 18:34:20 2024, MaxMem=  5368709120 cpu:        37.5
 (Enter /home/k0335/k033513/app/g09/l101.exe)
 -------------------
 Title A1462740670_0
 -------------------
 Symbolic Z-matrix:
 Charge =  0 Multiplicity = 1
 C                    -1.6766    1.91971   2.02086 
 C                    -0.78955   1.14229   1.37198 
 N                     0.21999   0.50336   2.08503 
 C                     0.46068   0.80659   3.49901 
 C                     1.06597  -0.42814   1.49646 
 O                     2.03292  -0.8979    2.09588 
 N                     0.7543   -0.79809   0.21336 
 C                     1.59983  -1.79921  -0.41981 
 F                     0.85778  -2.46618  -1.35237 
 F                     1.89353  -2.77458   0.49052 
 C                     2.90754  -1.26188  -1.05911 
 F                     2.59485  -0.44068  -2.10439 
 O                     3.60189  -0.42923  -0.12361 
 C                     4.90188  -0.09832  -0.53021 
 F                     5.71563  -1.14506  -0.3186 
 F                     4.93104   0.25777  -1.82352 
 F                     5.33085   0.93901   0.21301 
 C                     3.64445  -2.50504  -1.57775 
 F                     4.07753  -3.2949   -0.56924 
 F                     2.88467  -3.26994  -2.3916 
 F                     4.74143  -2.1663   -2.29924 
 C                    -0.00916  -0.00921  -0.60458 
 O                     0.00306  -0.15741  -1.82387 
 N                    -0.81032   0.94909  -0.00712 
 C                    -1.67478   1.72358  -0.92856 
 F                    -1.87162   2.97225  -0.38208 
 F                    -1.00487   2.02771  -2.07651 
 C                    -3.08125   1.14855  -1.25655 
 F                    -3.77062   2.12953  -1.92683 
 O                    -3.791     0.94544  -0.02287 
 C                    -5.05124   0.35029  -0.19338 
 F                    -5.76812   0.55921   0.92694 
 F                    -5.71082   0.87525  -1.23509 
 F                    -4.89126  -0.97269  -0.35665 
 C                    -2.94515  -0.07202  -2.16858 
 F                    -2.21374   0.16663  -3.27327 
 F                    -4.16001  -0.48781  -2.60876 
 F                    -2.40805  -1.12126  -1.50481 
 H                    -2.49631   2.4508    1.55405 
 H                    -1.65897   2.07139   3.09499 
 H                    -0.39376   0.46246   4.09073 
 H                     1.35239   0.31      3.8911 
 H                     0.605     1.88493   3.62284 
 
 NAtoms=     43 NQM=       43 NQMF=       0 NMMI=      0 NMMIF=      0
                NMic=       0 NMicF=      0.
                    Isotopes and Nuclear Properties:
 (Nuclear quadrupole moments (NQMom) in fm**2, nuclear magnetic moments (NMagM)
  in nuclear magnetons)

  Atom         1           2           3           4           5           6           7           8           9          10
 IAtWgt=          12          12          14          12          12          16          14          12          19          19
 AtmWgt=  12.0000000  12.0000000  14.0030740  12.0000000  12.0000000  15.9949146  14.0030740  12.0000000  18.9984033  18.9984033
 NucSpn=           0           0           2           0           0           0           2           0           1           1
 AtZEff=   0.0000000   0.0000000   0.0000000   0.0000000   0.0000000   0.0000000   0.0000000   0.0000000   0.0000000   0.0000000
 NQMom=    0.0000000   0.0000000   2.0440000   0.0000000   0.0000000   0.0000000   2.0440000   0.0000000   0.0000000   0.0000000
 NMagM=    0.0000000   0.0000000   0.4037610   0.0000000   0.0000000   0.0000000   0.4037610   0.0000000   2.6288670   2.6288670
 AtZNuc=   6.0000000   6.0000000   7.0000000   6.0000000   6.0000000   8.0000000   7.0000000   6.0000000   9.0000000   9.0000000

  Atom        11          12          13          14          15          16          17          18          19          20
 IAtWgt=          12          19          16          12          19          19          19          12          19          19
 AtmWgt=  12.0000000  18.9984033  15.9949146  12.0000000  18.9984033  18.9984033  18.9984033  12.0000000  18.9984033  18.9984033
 NucSpn=           0           1           0           0           1           1           1           0           1           1
 AtZEff=   0.0000000   0.0000000   0.0000000   0.0000000   0.0000000   0.0000000   0.0000000   0.0000000   0.0000000   0.0000000
 NQMom=    0.0000000   0.0000000   0.0000000   0.0000000   0.0000000   0.0000000   0.0000000   0.0000000   0.0000000   0.0000000
 NMagM=    0.0000000   2.6288670   0.0000000   0.0000000   2.6288670   2.6288670   2.6288670   0.0000000   2.6288670   2.6288670
 AtZNuc=   6.0000000   9.0000000   8.0000000   6.0000000   9.0000000   9.0000000   9.0000000   6.0000000   9.0000000   9.0000000

  Atom        21          22          23          24          25          26          27          28          29          30
 IAtWgt=          19          12          16          14          12          19          19          12          19          16
 AtmWgt=  18.9984033  12.0000000  15.9949146  14.0030740  12.0000000  18.9984033  18.9984033  12.0000000  18.9984033  15.9949146
 NucSpn=           1           0           0           2           0           1           1           0           1           0
 AtZEff=   0.0000000   0.0000000   0.0000000   0.0000000   0.0000000   0.0000000   0.0000000   0.0000000   0.0000000   0.0000000
 NQMom=    0.0000000   0.0000000   0.0000000   2.0440000   0.0000000   0.0000000   0.0000000   0.0000000   0.0000000   0.0000000
 NMagM=    2.6288670   0.0000000   0.0000000   0.4037610   0.0000000   2.6288670   2.6288670   0.0000000   2.6288670   0.0000000
 AtZNuc=   9.0000000   6.0000000   8.0000000   7.0000000   6.0000000   9.0000000   9.0000000   6.0000000   9.0000000   8.0000000

  Atom        31          32          33          34          35          36          37          38          39          40
 IAtWgt=          12          19          19          19          12          19          19          19           1           1
 AtmWgt=  12.0000000  18.9984033  18.9984033  18.9984033  12.0000000  18.9984033  18.9984033  18.9984033   1.0078250   1.0078250
 NucSpn=           0           1           1           1           0           1           1           1           1           1
 AtZEff=   0.0000000   0.0000000   0.0000000   0.0000000   0.0000000   0.0000000   0.0000000   0.0000000   0.0000000   0.0000000
 NQMom=    0.0000000   0.0000000   0.0000000   0.0000000   0.0000000   0.0000000   0.0000000   0.0000000   0.0000000   0.0000000
 NMagM=    0.0000000   2.6288670   2.6288670   2.6288670   0.0000000   2.6288670   2.6288670   2.6288670   2.7928460   2.7928460
 AtZNuc=   6.0000000   9.0000000   9.0000000   9.0000000   6.0000000   9.0000000   9.0000000   9.0000000   1.0000000   1.0000000

  Atom        41          42          43
 IAtWgt=           1           1           1
 AtmWgt=   1.0078250   1.0078250   1.0078250
 NucSpn=           1           1           1
 AtZEff=   0.0000000   0.0000000   0.0000000
 NQMom=    0.0000000   0.0000000   0.0000000
 NMagM=    2.7928460   2.7928460   2.7928460
 AtZNuc=   1.0000000   1.0000000   1.0000000
 Leave Link  101 at Tue Mar  5 18:34:23 2024, MaxMem=  5368709120 cpu:         1.0
 (Enter /home/k0335/k033513/app/g09/l202.exe)
                          Input orientation:                          
 ---------------------------------------------------------------------
 Center     Atomic      Atomic             Coordinates (Angstroms)
 Number     Number       Type             X           Y           Z
 ---------------------------------------------------------------------
      1          6           0       -1.676599    1.919707    2.020855
      2          6           0       -0.789551    1.142290    1.371978
      3          7           0        0.219988    0.503358    2.085034
      4          6           0        0.460677    0.806591    3.499012
      5          6           0        1.065970   -0.428142    1.496461
      6          8           0        2.032924   -0.897900    2.095883
      7          7           0        0.754297   -0.798093    0.213364
      8          6           0        1.599832   -1.799209   -0.419805
      9          9           0        0.857778   -2.466182   -1.352366
     10          9           0        1.893531   -2.774578    0.490515
     11          6           0        2.907537   -1.261875   -1.059113
     12          9           0        2.594852   -0.440676   -2.104391
     13          8           0        3.601886   -0.429226   -0.123610
     14          6           0        4.901880   -0.098317   -0.530205
     15          9           0        5.715628   -1.145056   -0.318598
     16          9           0        4.931039    0.257767   -1.823522
     17          9           0        5.330845    0.939007    0.213012
     18          6           0        3.644447   -2.505043   -1.577747
     19          9           0        4.077532   -3.294899   -0.569237
     20          9           0        2.884671   -3.269940   -2.391597
     21          9           0        4.741433   -2.166296   -2.299237
     22          6           0       -0.009159   -0.009208   -0.604578
     23          8           0        0.003057   -0.157410   -1.823874
     24          7           0       -0.810315    0.949088   -0.007115
     25          6           0       -1.674782    1.723578   -0.928558
     26          9           0       -1.871621    2.972249   -0.382080
     27          9           0       -1.004872    2.027710   -2.076511
     28          6           0       -3.081246    1.148555   -1.256546
     29          9           0       -3.770620    2.129529   -1.926831
     30          8           0       -3.790996    0.945438   -0.022865
     31          6           0       -5.051242    0.350288   -0.193375
     32          9           0       -5.768118    0.559212    0.926944
     33          9           0       -5.710820    0.875252   -1.235085
     34          9           0       -4.891258   -0.972691   -0.356651
     35          6           0       -2.945151   -0.072019   -2.168581
     36          9           0       -2.213738    0.166630   -3.273265
     37          9           0       -4.160006   -0.487808   -2.608763
     38          9           0       -2.408047   -1.121261   -1.504810
     39          1           0       -2.496313    2.450801    1.554054
     40          1           0       -1.658971    2.071394    3.094987
     41          1           0       -0.393763    0.462457    4.090727
     42          1           0        1.352387    0.309995    3.891097
     43          1           0        0.604996    1.884932    3.622835
 ---------------------------------------------------------------------
                    Distance matrix (angstroms):
                    1          2          3          4          5
     1  C    0.000000
     2  C    1.346207   0.000000
     3  N    2.367954   1.391349   0.000000
     4  C    2.826999   2.489987   1.466020   0.000000
     5  C    3.648160   2.434073   1.389171   2.429229   0.000000
     6  O    4.658873   3.557074   2.291370   2.710354   1.230845
     7  N    4.069732   2.736958   2.341455   3.668338   1.371256
     8  C    5.524686   4.191903   3.671512   4.842003   2.415970
     9  F    6.085861   4.812153   4.587010   5.865544   3.508955
    10  F    6.092953   4.828847   4.010998   4.891717   2.683756
    11  C    6.373615   5.035740   4.497180   5.571551   3.258441
    12  F    6.390177   5.103441   4.907388   6.124419   3.912004
    13  O    6.162680   4.898078   4.145486   4.951548   3.009236
    14  C    7.338713   6.127789   5.396443   6.064465   4.350904
    15  F    8.337316   7.099814   6.220673   6.782152   5.042591
    16  F    7.823181   6.612016   6.126265   6.972425   5.141159
    17  F    7.303036   6.232477   5.460322   5.876552   4.658916
    18  C    7.800120   6.454785   5.847509   6.846663   4.518054
    19  F    8.186007   6.866255   6.029308   6.815755   4.642727
    20  F    8.198009   6.865288   6.432615   7.562614   5.147862
    21  F    8.749271   7.417300   6.840493   7.796321   5.562152
    22  C    3.659777   2.416968   2.747589   4.210193   2.397034
    23  O    4.681624   3.539904   3.970294   5.428796   3.496813
    24  N    2.409401   1.392715   2.374297   3.732111   2.770911
    25  C    2.955927   2.532587   3.763087   5.000443   4.245272
    26  F    2.630585   2.756147   4.069017   5.019219   4.870423
    27  F    4.153467   3.566848   4.598085   5.892828   4.804761
    28  C    3.648159   3.487269   4.741369   5.939486   5.221534
    29  F    4.473609   4.554509   5.887652   7.006698   6.453930
    30  O    3.097849   3.315571   4.552655   5.522646   5.271166
    31  C    4.330601   4.608645   5.744601   6.650052   6.393886
    32  F    4.448383   5.032312   6.099320   6.743487   6.928490
    33  F    5.288381   5.575570   6.807054   7.778417   7.421931
    34  F    4.934829   4.928012   5.853664   6.831924   6.262517
    35  C    4.809113   4.319342   5.333142   6.670325   5.445039
    36  F    5.602634   4.955654   5.894724   7.309294   5.818980
    37  F    5.778997   5.464749   6.496036   7.767309   6.645845
    38  F    4.713047   4.002387   4.736342   6.081482   4.642934
    39  H    1.082541   2.158330   3.384193   3.902573   4.580556
    40  H    1.084933   2.141935   2.647495   2.501174   4.028433
    41  H    2.837889   2.830268   2.097896   1.094816   3.107121
    42  H    3.906883   3.409776   2.140463   1.093382   2.522135
    43  H    2.788050   2.750025   2.102810   1.094979   3.175575
                    6          7          8          9         10
     6  O    0.000000
     7  N    2.277878   0.000000
     8  C    2.707141   1.455358   0.000000
     9  F    3.966220   2.290140   1.365711   0.000000
    10  F    2.473572   2.298077   1.366121   2.136376   0.000000
    11  C    3.294150   2.543764   1.551623   2.395384   2.391197
    12  F    4.262290   2.981171   2.381912   2.772299   3.559844
    13  O    2.758160   2.891086   2.443932   3.631688   2.965856
    14  C    3.970715   4.271420   3.716012   4.757888   4.153842
    15  F    4.410568   5.001817   4.168685   5.139334   4.233017
    16  F    5.009628   4.765388   4.159148   4.922737   4.876099
    17  F    4.218497   4.895131   4.671054   5.835585   5.067825
    18  C    4.321513   3.804566   2.453463   2.796038   2.723245
    19  F    4.126608   4.229704   2.898002   3.415681   2.482674
    20  F    5.146797   4.175445   2.775216   2.415434   3.087768
    21  F    5.316195   4.907382   3.679222   4.008650   4.032774
    22  C    3.500338   1.369027   2.413938   2.710625   3.530826
    23  O    4.475844   2.263885   2.686374   2.506650   3.972387
    24  N    3.989733   2.355687   3.678622   4.031911   4.628618
    25  C    5.455866   3.682830   4.836523   4.914017   5.914392
    26  F    6.030243   4.633085   5.900781   6.161786   6.925591
    27  F    5.932644   4.040219   4.916754   4.918223   6.168657
    28  C    6.448371   4.545488   5.594814   5.347094   6.572032
    29  F    7.683012   5.798817   6.822600   6.547720   7.872511
    30  O    6.465681   4.873950   6.062316   5.917586   6.812923
    31  C    7.548780   5.931989   6.993454   6.647727   7.646069
    32  F    8.021587   6.700252   7.852552   7.632219   8.366928
    33  F    8.614232   6.833434   7.827072   7.370578   8.609594
    34  F    7.346075   5.676944   6.543804   6.022738   7.070916
    35  C    6.606736   4.459457   5.167037   4.567329   6.147151
    36  F    6.927850   4.679370   5.152676   4.478366   6.299715
    37  F    7.788084   5.675478   6.299765   5.538109   7.174967
    38  F    5.721635   3.613444   4.207130   3.535204   5.021788
    39  H    5.658742   4.787403   6.223914   6.623740   6.906984
    40  H    4.842004   4.728802   6.160773   6.833928   6.548816
    41  H    3.423271   4.235678   5.425353   6.306389   5.354590
    42  H    2.268245   3.887324   4.805606   5.953629   4.622920
    43  H    3.480620   4.341130   5.559274   6.614281   5.760450
                   11         12         13         14         15
    11  C    0.000000
    12  F    1.365557   0.000000
    13  O    1.431988   2.222103   0.000000
    14  C    2.368758   2.813832   1.401715   0.000000
    15  F    2.906438   3.663939   2.240165   1.342619   0.000000
    16  F    2.643519   2.454482   2.264577   1.341758   2.201883
    17  F    3.512066   3.841815   2.230398   1.346263   2.184945
    18  C    1.535410   2.374998   2.534826   2.910466   2.779355
    19  F    2.396258   3.563934   2.938861   3.301395   2.714407
    20  F    2.410054   2.858534   3.705107   4.194414   4.102045
    21  F    2.391456   2.761076   3.008211   2.726124   2.432060
    22  C    3.206695   3.035865   3.667068   4.912410   5.843383
    23  O    3.200110   2.622276   3.989530   5.067104   5.989555
    24  N    4.451683   4.233813   4.623942   5.830939   6.860787
    25  C    5.470614   4.929133   5.755496   6.835969   7.951055
    26  F    6.420789   5.879098   6.449505   7.438456   8.632646
    27  F    5.211853   4.364828   5.574278   6.465352   7.636873
    28  C    6.458690   5.955047   6.959683   8.112494   9.139223
    29  F    7.540049   6.867075   8.009537   9.062346  10.163573
    30  O    7.128561   6.858069   7.520276   8.770001   9.738251
    31  C    8.166440   7.920881   8.688448   9.968919  10.870935
    32  F    9.084480   8.951426   9.480382  10.789091  11.676143
    33  F    8.881124   8.454085   9.469083  10.680547  11.639816
    34  F    7.835706   7.705808   8.513704   9.833626  10.608355
    35  C    6.074589   5.552627   6.868275   8.016287   8.920927
    36  F    5.759388   4.985742   6.640546   7.630635   8.563026
    37  F    7.276727   6.773826   8.150238   9.305369  10.158985
    38  F    5.336090   5.084456   6.205314   7.445220   8.209858
    39  H    7.057918   6.903971   6.949615   8.097864   9.158220
    40  H    7.015713   7.172101   6.655004   7.803488   8.739727
    41  H    6.355529   6.937359   5.875453   7.050625   7.703954
    42  H    5.421609   6.168720   4.660962   5.684499   6.235108
    43  H    6.093006   6.493774   5.326587   6.296366   7.129816
                   16         17         18         19         20
    16  F    0.000000
    17  F    2.184354   0.000000
    18  C    3.057588   4.232285   0.000000
    19  F    3.863048   4.484269   1.352231   0.000000
    20  F    4.117651   5.521140   1.350807   2.178196   0.000000
    21  F    2.477567   4.037537   1.355978   2.169656   2.161973
    22  C    5.095356   5.484816   4.530462   5.243859   4.711694
    23  O    4.945440   5.808301   4.339548   5.293326   4.279469
    24  N    6.061386   6.145112   5.851736   6.497573   6.094167
    25  C    6.825426   7.141256   6.826191   7.642208   6.918404
    26  F    7.464740   7.507578   7.864945   8.643182   8.100950
    27  F    6.199334   6.824112   6.512356   7.512182   6.579736
    28  C    8.081564   8.542060   7.660737   8.453684   7.510233
    29  F    8.901294   9.425123   8.751248   9.636440   8.582725
    30  O    8.932477   9.124892   8.343218   8.955038   8.242866
    31  C   10.114933  10.406703   9.256587   9.836827   8.995385
    32  F   11.051149  11.128384  10.210755  10.678462  10.027257
    33  F   10.675987  11.136400   9.953132  10.660457   9.612627
    34  F   10.007160  10.414917   8.757707   9.266986   8.359631
    35  C    7.890640   8.671002   7.049219   7.890686   6.653064
    36  F    7.290946   8.346941   6.658149   7.672941   6.211371
    37  F    9.155304  10.003723   8.126606   8.938482   7.577262
    38  F    7.474321   8.190608   6.209095   6.903820   5.780664
    39  H    8.448845   8.083831   8.489847   8.985370   8.789200
    40  H    8.420760   7.644973   8.420479   8.667820   8.903771
    41  H    7.960764   6.930722   7.566029   7.471644   8.166973
    42  H    6.742874   5.454548   6.564010   6.349508   7.391622
    43  H    7.143187   5.903839   7.453603   7.514162   8.242755
                   21         22         23         24         25
    21  F    0.000000
    22  C    5.485711   0.000000
    23  O    5.168539   1.228330   0.000000
    24  N    6.766191   1.384610   2.277394   0.000000
    25  C    7.627430   2.425244   2.674855   1.481957   0.000000
    26  F    8.591427   3.522408   3.922748   2.315200   1.377158
    27  F    7.117536   2.703159   2.419607   2.341725   1.363478
    28  C    8.559775   3.347118   3.397106   2.599614   1.554467
    29  F    9.541899   4.524504   4.413766   3.720505   2.356668
    30  O    9.363071   3.943606   4.342205   2.980725   2.429844
    31  C   10.327843   5.071580   5.335000   4.287040   3.718454
    32  F   11.326398   5.986173   6.433273   5.060067   4.642632
    33  F   10.937688   5.804201   5.836219   5.052555   4.135604
    34  F    9.898842   4.982435   5.174142   4.524324   4.235878
    35  C    7.967850   3.327176   2.969519   3.205015   2.525008
    36  F    7.400384   3.465974   2.668317   3.639996   2.865696
    37  F    9.063594   4.634150   4.249271   4.478133   3.726883
    38  F    7.268994   2.793160   2.616149   3.013666   2.993802
    39  H    9.410122   4.110629   4.945706   2.744992   2.714246
    40  H    9.381942   4.553852   5.650230   3.406292   4.038581
    41  H    8.608845   4.734583   5.960219   4.147606   5.331478
    42  H    7.479163   4.708162   5.890675   4.503529   5.864388
    43  H    8.282119   4.672898   5.848088   4.006925   5.092995
                   26         27         28         29         30
    26  F    0.000000
    27  F    2.124736   0.000000
    28  C    2.356638   2.399288   0.000000
    29  F    2.588944   2.771666   1.373619   0.000000
    30  O    2.814427   3.626467   1.437696   2.242225   0.000000
    31  C    4.125564   4.767919   2.376646   2.794738   1.404100
    32  F    4.766443   5.819428   3.512013   3.820985   2.227177
    33  F    4.456957   4.917530   2.643826   2.411659   2.271591
    34  F    4.968038   5.202338   2.930126   3.653090   2.236338
    35  C    3.689393   2.860423   1.529749   2.363611   2.520867
    36  F    4.043203   2.521348   2.404975   2.844247   3.695861
    37  F    4.708165   4.070134   2.381155   2.732601   2.979468
    38  F    4.278446   3.494533   2.380524   3.549978   2.894815
    39  H    2.100182   3.947709   3.152374   3.720703   2.535546
    40  H    3.598160   5.212883   4.670154   5.448036   3.941359
    41  H    5.337520   6.392049   6.023838   7.098824   5.356874
    42  H    5.978450   6.642256   6.845328   7.962675   6.494403
    43  H    4.832725   5.924070   6.159463   7.071396   5.787791
                   31         32         33         34         35
    31  C    0.000000
    32  F    1.346356   0.000000
    33  F    1.340071   2.185757   0.000000
    34  F    1.342582   2.182482   2.204137   0.000000
    35  C    2.918116   4.236729   3.068821   2.807425   0.000000
    36  F    4.191764   5.516293   4.109246   4.119928   1.346197
    37  F    2.707546   4.022872   2.479909   2.416992   1.357392
    38  F    3.297241   4.475209   3.868737   2.739832   1.352768
    39  H    3.740765   3.830938   4.538139   4.594219   4.519302
    40  H    5.028224   4.885918   6.049608   5.623872   5.826974
    41  H    6.329157   6.237193   7.536960   6.485852   6.780426
    42  H    7.595459   7.716858   8.745636   7.659749   7.438714
    43  H    6.993684   7.045704   8.031710   7.362821   7.069208
                   36         37         38         39         40
    36  F    0.000000
    37  F    2.158196   0.000000
    38  F    2.196327   2.165487   0.000000
    39  H    5.347924   5.360256   4.703623   0.000000
    40  H    6.670122   6.733309   5.649097   1.794315   0.000000
    41  H    7.591324   7.744079   6.154310   3.848238   2.276165
    42  H    8.004117   8.559857   6.730912   4.985711   3.578351
    43  H    7.645523   8.195606   6.663960   3.770700   2.332153
                   41         42         43
    41  H    0.000000
    42  H    1.764125   0.000000
    43  H    1.799966   1.763798   0.000000
 Symmetry turned off by external request.
 Stoichiometry    C13H5F18N3O4
 Framework group  C1[X(C13H5F18N3O4)]
 Deg. of freedom   123
 Full point group                 C1      NOp   1
 Rotational constants (GHZ):      0.2044910      0.0602058      0.0562615
 Leave Link  202 at Tue Mar  5 18:34:24 2024, MaxMem=  5368709120 cpu:         0.1
 (Enter /home/k0335/k033513/app/g09/l301.exe)
 Standard basis: 6-31G(d,p) (6D, 7F)
 Ernie: Thresh=  0.10000D-02 Tol=  0.10000D-05 Strict=F.
   595 basis functions,  1099 primitive gaussians,   595 cartesian basis functions
   149 alpha electrons      149 beta electrons
       nuclear repulsion energy      5631.8593573310 Hartrees.
 IExCor=20419 DFT=T Ex+Corr=CAM-B3LYP ExCW=0 ScaHFX=  1.000000
 ScaDFX=  1.000000  1.000000  1.000000  0.810000 ScalE2=  1.000000  1.000000
 IRadAn=      0 IRanWt=     -1 IRanGd=            0 ICorTp=0 IEmpDi=  4
  HFx wShort=  0.000000 wLong=  0.330000 cFull=  0.190000 cShort=  0.000000 cLong=  0.460000
  DFx wShort=  0.000000 wLong=  0.330000 cFull=  0.190000 cShort=  0.000000 cLong=  0.460000
 NAtoms=   43 NActive=   43 NUniq=   43 SFac= 1.00D+00 NAtFMM=   60 NAOKFM=F Big=F
 Integral buffers will be    131072 words long.
 Raffenetti 2 integral format.
 Two-electron integral symmetry is turned off.
 Using the following non-standard input for PCM:
 eps=2.05
 --- end of non-standard input.
 ------------------------------------------------------------------------------
 Polarizable Continuum Model (PCM)
 =================================
 Model                : PCM (using non-symmetric T matrix).
 Atomic radii         : UFF (Universal Force Field).
 Polarization charges : Total charges.
 Charge compensation  : None.
 Solution method      : On-the-fly selection.
 Cavity type          : Scaled VdW (van der Waals Surface) (Alpha=1.100).
 Cavity algorithm     : GePol (No added spheres)
                        Default sphere list used, NSphG=   43.
                        Lebedev-Laikov grids with approx.  5.0 points / Ang**2.
                        Smoothing algorithm: Karplus/York (Gamma=1.0000).
                        Polarization charges: spherical gaussians, with
                                              point-specific exponents (IZeta= 3).
                        Self-potential: point-specific (ISelfS= 7).
                        Self-field    : sphere-specific E.n sum rule (ISelfD= 2).
 Solvent              : Generic,
                        Eps                           =   2.050000
                        Eps(infinity)                 =   0.000000
                        RSolv                         =   0.000000 Ang.
                        Molar volume                  =   0.000000 cm**3/mol
                        Thermal expansion coefficient =   0.000000 K**-1
                        Absolute temperature          = 298.150000 K
                        Numeral density               =   0.000000 Ang**-3
                        Hydrogen bond acidity         =   0.000000
                        Hydrogen bond basicity        =   0.000000
                        Surface tension at interface  =   0.000000 (cal/mol)*Ang**-2
                        Carbon aromaticity            =   0.000000
                        Electronegative halogenicity  =   0.000000
 ------------------------------------------------------------------------------
 GePol: Number of generator spheres                  =      43
 GePol: Total number of spheres                      =      43
 GePol: Number of exposed spheres                    =      43 (100.00%)
 GePol: Number of points                             =    3475
 GePol: Average weight of points                     =       0.12
 GePol: Minimum weight of points                     =   0.17D-08
 GePol: Maximum weight of points                     =    0.20577
 GePol: Number of points with low weight             =     161
 GePol: Fraction of low-weight points (<1% of avg)   =       4.63%
 GePol: Cavity surface area                          =    433.091 Ang**2
 GePol: Cavity volume                                =    509.589 Ang**3
 Leave Link  301 at Tue Mar  5 18:34:24 2024, MaxMem=  5368709120 cpu:         0.9
 (Enter /home/k0335/k033513/app/g09/l302.exe)
 NPDir=0 NMtPBC=     1 NCelOv=     1 NCel=       1 NClECP=     1 NCelD=      1
         NCelK=      1 NCelE2=     1 NClLst=     1 CellRange=     0.0.
 One-electron integrals computed using PRISM.
 NBasis=   595 RedAO= T EigKep=  1.21D-03  NBF=   595
 NBsUse=   595 1.00D-06 EigRej= -1.00D+00 NBFU=   595
 Precomputing XC quadrature grid using
 IXCGrd= 4 IRadAn=           0 IRanWt=          -1 IRanGd=           0 AccXCQ= 0.00D+00.
 Generated NRdTot=       0 NPtTot=           0 NUsed=           0 NTot=          32
 NSgBfM=   582   582   582   582   582 MxSgAt=    43 MxSgA2=    43.
 Leave Link  302 at Tue Mar  5 18:34:25 2024, MaxMem=  5368709120 cpu:        13.3
 (Enter /home/k0335/k033513/app/g09/l303.exe)
 DipDrv:  MaxL=1.
 Leave Link  303 at Tue Mar  5 18:34:25 2024, MaxMem=  5368709120 cpu:         0.9
 (Enter /home/k0335/k033513/app/g09/l401.exe)
 ExpMin= 1.61D-01 ExpMax= 7.00D+03 ExpMxC= 1.05D+03 IAcc=1 IRadAn=         1 AccDes= 0.00D+00
 Harris functional with IExCor=20419 and IRadAn=       1 diagonalized for initial guess.
 HarFok:  IExCor=20419 AccDes= 0.00D+00 IRadAn=         1 IDoV= 1 UseB2=F ITyADJ=14
 ICtDFT=  3500011 ScaDFX=  1.000000  1.000000  1.000000  1.000000
 FoFCou: FMM=F IPFlag=           0 FMFlag=      100000 FMFlg1=           0
         NFxFlg=           0 DoJE=T BraDBF=F KetDBF=T FulRan=T
         wScrn=  0.000000 ICntrl=     500 IOpCl=  0 I1Cent=   200000004 NGrid=           0
         NMat0=    1 NMatS0=      1 NMatT0=    0 NMatD0=    1 NMtDS0=    0 NMtDT0=    0
 Symmetry not used in FoFCou.
 Harris En= -2677.19128631819    
 JPrj=0 DoOrth=F DoCkMO=F.
 Leave Link  401 at Tue Mar  5 18:34:26 2024, MaxMem=  5368709120 cpu:        14.4
 (Enter /home/k0335/k033513/app/g09/l502.exe)
 Closed shell SCF:
 Using DIIS extrapolation, IDIIS=  1040.
 Two-electron integral symmetry not used.
 IVT=     1098561 IEndB=     1098561 NGot=  5368709120 MDV=  5367981820
 LenX=  5367981820 LenY=  5367627200
 Requested convergence on RMS density matrix=1.00D-08 within 128 cycles.
 Requested convergence on MAX density matrix=1.00D-06.
 Requested convergence on             energy=1.00D-06.
 No special actions if energy rises.
 Fock matrices will be formed incrementally for  20 cycles.

 Cycle   1  Pass 1  IDiag  1:
 FoFJK:  IHMeth= 1 ICntrl=       0 DoSepK=T KAlg= 0 I1Cent=   0 FoldK=F
 IRaf=         1 NMat=   1 IRICut=       1 DoRegI=T DoRafI=F ISym2E= 0.
 FoFCou: FMM=F IPFlag=           0 FMFlag=      100000 FMFlg1=           0
         NFxFlg=           0 DoJE=T BraDBF=F KetDBF=F FulRan=T
         wScrn=  0.000000 ICntrl=     500 IOpCl=  0 I1Cent=           0 NGrid=           0
         NMat0=    1 NMatS0=      1 NMatT0=    0 NMatD0=    1 NMtDS0=    0 NMtDT0=    0
 Symmetry not used in FoFCou.
 Inv3:  Mode=1 IEnd=    36226875.
 Iteration    1 A*A^-1 deviation from unit magnitude is 9.33D-15 for    848.
 Iteration    1 A*A^-1 deviation from orthogonality  is 3.43D-15 for   3452     29.
 Iteration    1 A^-1*A deviation from unit magnitude is 8.77D-15 for   1159.
 Iteration    1 A^-1*A deviation from orthogonality  is 1.41D-14 for   3079   3071.
 E= -2758.86621729508    
 DIIS: error= 4.81D-02 at cycle   1 NSaved=   1.
 NSaved= 1 IEnMin= 1 EnMin= -2758.86621729508     IErMin= 1 ErrMin= 4.81D-02
 ErrMax= 4.81D-02  0.00D+00 EMaxC= 1.00D-01 BMatC= 2.37D+00 BMatP= 2.37D+00
 IDIUse=3 WtCom= 5.19D-01 WtEn= 4.81D-01
 Coeff-Com:  0.100D+01
 Coeff-En:   0.100D+01
 Coeff:      0.100D+01
 Gap=     0.383 Goal=   None    Shift=    0.000
 GapD=    0.383 DampG=1.000 DampE=0.500 DampFc=0.5000 IDamp=-1.
 Damping current iteration by 5.00D-01
 RMSDP=3.23D-03 MaxDP=1.50D-01              OVMax= 3.92D-01

 Cycle   2  Pass 1  IDiag  1:
 RMSU=  1.61D-03    CP:  1.00D+00
 E= -2759.35433227116     Delta-E=       -0.488114976079 Rises=F Damp=T
 DIIS: error= 2.18D-02 at cycle   2 NSaved=   2.
 NSaved= 2 IEnMin= 2 EnMin= -2759.35433227116     IErMin= 2 ErrMin= 2.18D-02
 ErrMax= 2.18D-02  0.00D+00 EMaxC= 1.00D-01 BMatC= 3.01D-01 BMatP= 2.37D+00
 IDIUse=3 WtCom= 7.82D-01 WtEn= 2.18D-01
 Coeff-Com: -0.245D+00 0.125D+01
 Coeff-En:   0.000D+00 0.100D+01
 Coeff:     -0.192D+00 0.119D+01
 Gap=     0.310 Goal=   None    Shift=    0.000
 RMSDP=1.08D-03 MaxDP=6.41D-02 DE=-4.88D-01 OVMax= 2.70D-01

 Cycle   3  Pass 1  IDiag  1:
 RMSU=  1.05D-03    CP:  1.00D+00  1.14D+00
 E= -2759.70762185879     Delta-E=       -0.353289587636 Rises=F Damp=F
 DIIS: error= 1.28D-02 at cycle   3 NSaved=   3.
 NSaved= 3 IEnMin= 3 EnMin= -2759.70762185879     IErMin= 3 ErrMin= 1.28D-02
 ErrMax= 1.28D-02  0.00D+00 EMaxC= 1.00D-01 BMatC= 1.87D-01 BMatP= 3.01D-01
 IDIUse=3 WtCom= 8.72D-01 WtEn= 1.28D-01
 Coeff-Com: -0.202D+00 0.646D+00 0.556D+00
 Coeff-En:   0.000D+00 0.000D+00 0.100D+01
 Coeff:     -0.176D+00 0.563D+00 0.613D+00
 Gap=     0.323 Goal=   None    Shift=    0.000
 RMSDP=8.37D-04 MaxDP=6.80D-02 DE=-3.53D-01 OVMax= 1.17D-01

 Cycle   4  Pass 1  IDiag  1:
 RMSU=  3.93D-04    CP:  1.00D+00  1.37D+00  3.92D-01
 E= -2759.82351959646     Delta-E=       -0.115897737669 Rises=F Damp=F
 DIIS: error= 6.47D-03 at cycle   4 NSaved=   4.
 NSaved= 4 IEnMin= 4 EnMin= -2759.82351959646     IErMin= 4 ErrMin= 6.47D-03
 ErrMax= 6.47D-03  0.00D+00 EMaxC= 1.00D-01 BMatC= 3.81D-02 BMatP= 1.87D-01
 IDIUse=3 WtCom= 9.35D-01 WtEn= 6.47D-02
 Coeff-Com: -0.596D-01 0.142D+00 0.347D+00 0.570D+00
 Coeff-En:   0.000D+00 0.000D+00 0.177D+00 0.823D+00
 Coeff:     -0.557D-01 0.133D+00 0.336D+00 0.587D+00
 Gap=     0.306 Goal=   None    Shift=    0.000
 RMSDP=3.15D-04 MaxDP=3.16D-02 DE=-1.16D-01 OVMax= 3.79D-02

 Cycle   5  Pass 1  IDiag  1:
 RMSU=  1.27D-04    CP:  9.99D-01  1.32D+00  6.14D-01  6.26D-01
 E= -2759.85033902347     Delta-E=       -0.026819427014 Rises=F Damp=F
 DIIS: error= 1.22D-03 at cycle   5 NSaved=   5.
 NSaved= 5 IEnMin= 5 EnMin= -2759.85033902347     IErMin= 5 ErrMin= 1.22D-03
 ErrMax= 1.22D-03  0.00D+00 EMaxC= 1.00D-01 BMatC= 2.00D-03 BMatP= 3.81D-02
 IDIUse=3 WtCom= 9.88D-01 WtEn= 1.22D-02
 Coeff-Com: -0.178D-01 0.341D-01 0.152D+00 0.332D+00 0.500D+00
 Coeff-En:   0.000D+00 0.000D+00 0.000D+00 0.000D+00 0.100D+01
 Coeff:     -0.176D-01 0.336D-01 0.150D+00 0.328D+00 0.506D+00
 Gap=     0.310 Goal=   None    Shift=    0.000
 RMSDP=6.32D-05 MaxDP=5.84D-03 DE=-2.68D-02 OVMax= 6.81D-03

 Cycle   6  Pass 1  IDiag  1:
 RMSU=  2.88D-05    CP:  1.00D+00  1.33D+00  6.02D-01  6.78D-01  6.15D-01
 E= -2759.85178297935     Delta-E=       -0.001443955873 Rises=F Damp=F
 DIIS: error= 9.05D-05 at cycle   6 NSaved=   6.
 NSaved= 6 IEnMin= 6 EnMin= -2759.85178297935     IErMin= 6 ErrMin= 9.05D-05
 ErrMax= 9.05D-05  0.00D+00 EMaxC= 1.00D-01 BMatC= 2.78D-05 BMatP= 2.00D-03
 IDIUse=1 WtCom= 1.00D+00 WtEn= 0.00D+00
 Coeff-Com:  0.930D-03-0.359D-02 0.623D-02 0.254D-01 0.114D+00 0.857D+00
 Coeff:      0.930D-03-0.359D-02 0.623D-02 0.254D-01 0.114D+00 0.857D+00
 Gap=     0.312 Goal=   None    Shift=    0.000
 RMSDP=1.34D-05 MaxDP=9.61D-04 DE=-1.44D-03 OVMax= 1.54D-03

 Cycle   7  Pass 1  IDiag  1:
 RMSU=  1.03D-05    CP:  9.99D-01  1.33D+00  6.05D-01  6.91D-01  6.65D-01
                    CP:  1.00D+00
 E= -2759.85180707097     Delta-E=       -0.000024091622 Rises=F Damp=F
 DIIS: error= 6.58D-05 at cycle   7 NSaved=   7.
 NSaved= 7 IEnMin= 7 EnMin= -2759.85180707097     IErMin= 7 ErrMin= 6.58D-05
 ErrMax= 6.58D-05  0.00D+00 EMaxC= 1.00D-01 BMatC= 7.48D-06 BMatP= 2.78D-05
 IDIUse=1 WtCom= 1.00D+00 WtEn= 0.00D+00
 Coeff-Com:  0.229D-02-0.504D-02-0.116D-01-0.215D-01 0.381D-02 0.393D+00
 Coeff-Com:  0.639D+00
 Coeff:      0.229D-02-0.504D-02-0.116D-01-0.215D-01 0.381D-02 0.393D+00
 Coeff:      0.639D+00
 Gap=     0.311 Goal=   None    Shift=    0.000
 RMSDP=5.06D-06 MaxDP=4.24D-04 DE=-2.41D-05 OVMax= 8.37D-04

 Cycle   8  Pass 1  IDiag  1:
 RMSU=  3.08D-06    CP:  9.99D-01  1.33D+00  6.06D-01  6.91D-01  6.77D-01
                    CP:  1.10D+00  7.91D-01
 E= -2759.85181387863     Delta-E=       -0.000006807664 Rises=F Damp=F
 DIIS: error= 1.63D-05 at cycle   8 NSaved=   8.
 NSaved= 8 IEnMin= 8 EnMin= -2759.85181387863     IErMin= 8 ErrMin= 1.63D-05
 ErrMax= 1.63D-05  0.00D+00 EMaxC= 1.00D-01 BMatC= 4.85D-07 BMatP= 7.48D-06
 IDIUse=1 WtCom= 1.00D+00 WtEn= 0.00D+00
 Coeff-Com:  0.799D-03-0.162D-02-0.447D-02-0.102D-01-0.788D-02 0.641D-01
 Coeff-Com:  0.224D+00 0.735D+00
 Coeff:      0.799D-03-0.162D-02-0.447D-02-0.102D-01-0.788D-02 0.641D-01
 Coeff:      0.224D+00 0.735D+00
 Gap=     0.311 Goal=   None    Shift=    0.000
 RMSDP=1.63D-06 MaxDP=1.52D-04 DE=-6.81D-06 OVMax= 1.74D-04

 Cycle   9  Pass 1  IDiag  1:
 RMSU=  1.15D-06    CP:  9.99D-01  1.33D+00  6.06D-01  6.90D-01  6.81D-01
                    CP:  1.12D+00  8.61D-01  9.80D-01
 E= -2759.85181433380     Delta-E=       -0.000000455166 Rises=F Damp=F
 DIIS: error= 4.99D-06 at cycle   9 NSaved=   9.
 NSaved= 9 IEnMin= 9 EnMin= -2759.85181433380     IErMin= 9 ErrMin= 4.99D-06
 ErrMax= 4.99D-06  0.00D+00 EMaxC= 1.00D-01 BMatC= 8.52D-08 BMatP= 4.85D-07
 IDIUse=1 WtCom= 1.00D+00 WtEn= 0.00D+00
 Coeff-Com:  0.297D-04-0.118D-04-0.152D-03-0.135D-02-0.421D-02-0.333D-01
 Coeff-Com:  0.499D-02 0.326D+00 0.708D+00
 Coeff:      0.297D-04-0.118D-04-0.152D-03-0.135D-02-0.421D-02-0.333D-01
 Coeff:      0.499D-02 0.326D+00 0.708D+00
 Gap=     0.311 Goal=   None    Shift=    0.000
 RMSDP=6.63D-07 MaxDP=7.39D-05 DE=-4.55D-07 OVMax= 8.93D-05

 Cycle  10  Pass 1  IDiag  1:
 RMSU=  3.89D-07    CP:  9.99D-01  1.33D+00  6.06D-01  6.91D-01  6.82D-01
                    CP:  1.13D+00  8.84D-01  1.09D+00  8.94D-01
 E= -2759.85181441322     Delta-E=       -0.000000079421 Rises=F Damp=F
 DIIS: error= 2.52D-06 at cycle  10 NSaved=  10.
 NSaved=10 IEnMin=10 EnMin= -2759.85181441322     IErMin=10 ErrMin= 2.52D-06
 ErrMax= 2.52D-06  0.00D+00 EMaxC= 1.00D-01 BMatC= 9.57D-09 BMatP= 8.52D-08
 IDIUse=1 WtCom= 1.00D+00 WtEn= 0.00D+00
 Coeff-Com: -0.666D-04 0.155D-03 0.433D-03 0.461D-03-0.108D-02-0.224D-01
 Coeff-Com: -0.209D-01 0.713D-01 0.319D+00 0.654D+00
 Coeff:     -0.666D-04 0.155D-03 0.433D-03 0.461D-03-0.108D-02-0.224D-01
 Coeff:     -0.209D-01 0.713D-01 0.319D+00 0.654D+00
 Gap=     0.311 Goal=   None    Shift=    0.000
 RMSDP=2.20D-07 MaxDP=2.14D-05 DE=-7.94D-08 OVMax= 3.41D-05

 Cycle  11  Pass 1  IDiag  1:
 RMSU=  1.52D-07    CP:  9.99D-01  1.33D+00  6.06D-01  6.91D-01  6.82D-01
                    CP:  1.13D+00  8.90D-01  1.11D+00  9.68D-01  8.54D-01
 E= -2759.85181442049     Delta-E=       -0.000000007272 Rises=F Damp=F
 DIIS: error= 9.93D-07 at cycle  11 NSaved=  11.
 NSaved=11 IEnMin=11 EnMin= -2759.85181442049     IErMin=11 ErrMin= 9.93D-07
 ErrMax= 9.93D-07  0.00D+00 EMaxC= 1.00D-01 BMatC= 1.56D-09 BMatP= 9.57D-09
 IDIUse=1 WtCom= 1.00D+00 WtEn= 0.00D+00
 Coeff-Com: -0.348D-04 0.738D-04 0.244D-03 0.411D-03 0.872D-04-0.627D-02
 Coeff-Com: -0.105D-01-0.101D-01 0.604D-01 0.330D+00 0.636D+00
 Coeff:     -0.348D-04 0.738D-04 0.244D-03 0.411D-03 0.872D-04-0.627D-02
 Coeff:     -0.105D-01-0.101D-01 0.604D-01 0.330D+00 0.636D+00
 Gap=     0.311 Goal=   None    Shift=    0.000
 RMSDP=7.56D-08 MaxDP=5.70D-06 DE=-7.27D-09 OVMax= 9.50D-06

 Cycle  12  Pass 1  IDiag  1:
 RMSU=  4.43D-08    CP:  9.99D-01  1.33D+00  6.06D-01  6.91D-01  6.82D-01
                    CP:  1.13D+00  8.91D-01  1.12D+00  9.83D-01  9.51D-01
                    CP:  8.37D-01
 E= -2759.85181442189     Delta-E=       -0.000000001402 Rises=F Damp=F
 DIIS: error= 4.16D-07 at cycle  12 NSaved=  12.
 NSaved=12 IEnMin=12 EnMin= -2759.85181442189     IErMin=12 ErrMin= 4.16D-07
 ErrMax= 4.16D-07  0.00D+00 EMaxC= 1.00D-01 BMatC= 9.27D-11 BMatP= 1.56D-09
 IDIUse=1 WtCom= 1.00D+00 WtEn= 0.00D+00
 Coeff-Com: -0.528D-05 0.100D-04 0.499D-04 0.102D-03 0.174D-03 0.102D-03
 Coeff-Com: -0.138D-02-0.109D-01-0.104D-01 0.472D-01 0.210D+00 0.766D+00
 Coeff:     -0.528D-05 0.100D-04 0.499D-04 0.102D-03 0.174D-03 0.102D-03
 Coeff:     -0.138D-02-0.109D-01-0.104D-01 0.472D-01 0.210D+00 0.766D+00
 Gap=     0.311 Goal=   None    Shift=    0.000
 RMSDP=2.42D-08 MaxDP=1.48D-06 DE=-1.40D-09 OVMax= 2.54D-06

 Cycle  13  Pass 1  IDiag  1:
 RMSU=  1.47D-08    CP:  9.99D-01  1.33D+00  6.06D-01  6.91D-01  6.82D-01
                    CP:  1.13D+00  8.91D-01  1.12D+00  9.92D-01  9.70D-01
                    CP:  8.98D-01  9.74D-01
 E= -2759.85181442179     Delta-E=        0.000000000107 Rises=F Damp=F
 DIIS: error= 7.56D-08 at cycle  13 NSaved=  13.
 NSaved=13 IEnMin=12 EnMin= -2759.85181442189     IErMin=13 ErrMin= 7.56D-08
 ErrMax= 7.56D-08  0.00D+00 EMaxC= 1.00D-01 BMatC= 1.44D-11 BMatP= 9.27D-11
 IDIUse=1 WtCom= 1.00D+00 WtEn= 0.00D+00
 Coeff-Com:  0.202D-05-0.478D-05-0.565D-05-0.544D-05 0.634D-04 0.687D-03
 Coeff-Com:  0.602D-03-0.342D-02-0.107D-01-0.192D-01 0.929D-02 0.308D+00
 Coeff-Com:  0.714D+00
 Coeff:      0.202D-05-0.478D-05-0.565D-05-0.544D-05 0.634D-04 0.687D-03
 Coeff:      0.602D-03-0.342D-02-0.107D-01-0.192D-01 0.929D-02 0.308D+00
 Coeff:      0.714D+00
 Gap=     0.311 Goal=   None    Shift=    0.000
 RMSDP=8.28D-09 MaxDP=4.78D-07 DE= 1.07D-10 OVMax= 1.57D-06

 Error on total polarization charges =  0.00154
 SCF Done:  E(RCAM-B3LYP) =  -2759.85181442     A.U. after   13 cycles
            NFock= 13  Conv=0.83D-08     -V/T= 2.0074
 KE= 2.739638062973D+03 PE=-1.778817874011D+04 EE= 6.656829505384D+03
 Leave Link  502 at Tue Mar  5 18:35:22 2024, MaxMem=  5368709120 cpu:      1213.8
 (Enter /home/k0335/k033513/app/g09/l601.exe)
 Copying SCF densities to generalized density rwf, IOpCl= 0 IROHF=0.

 **********************************************************************

            Population analysis using the SCF density.

 **********************************************************************

 Alpha  occ. eigenvalues --  -24.84048 -24.83819 -24.83657 -24.83551 -24.83373
 Alpha  occ. eigenvalues --  -24.83298 -24.83111 -24.83100 -24.82986 -24.82880
 Alpha  occ. eigenvalues --  -24.82795 -24.82745 -24.82710 -24.82531 -24.82282
 Alpha  occ. eigenvalues --  -24.82238 -24.82178 -24.82053 -19.33501 -19.32638
 Alpha  occ. eigenvalues --  -19.22915 -19.22314 -14.52009 -14.51816 -14.49247
 Alpha  occ. eigenvalues --  -10.59947 -10.59291 -10.55500 -10.54912 -10.53629
 Alpha  occ. eigenvalues --  -10.52668 -10.49228 -10.48473 -10.45520 -10.44201
 Alpha  occ. eigenvalues --  -10.38284 -10.31398 -10.26402  -1.43541  -1.42942
 Alpha  occ. eigenvalues --   -1.41741  -1.41283  -1.38969  -1.38309  -1.35390
 Alpha  occ. eigenvalues --   -1.35114  -1.33846  -1.33528  -1.33243  -1.33016
 Alpha  occ. eigenvalues --   -1.32917  -1.32258  -1.32129  -1.31677  -1.31354
 Alpha  occ. eigenvalues --   -1.30810  -1.21277  -1.20861  -1.20179  -1.16433
 Alpha  occ. eigenvalues --   -1.11100  -1.07948  -1.04954  -0.93667  -0.93000
 Alpha  occ. eigenvalues --   -0.88081  -0.85531  -0.83345  -0.82326  -0.81897
 Alpha  occ. eigenvalues --   -0.80304  -0.78315  -0.76148  -0.75637  -0.73702
 Alpha  occ. eigenvalues --   -0.73248  -0.72602  -0.72379  -0.71893  -0.71447
 Alpha  occ. eigenvalues --   -0.70658  -0.70149  -0.69835  -0.69464  -0.68827
 Alpha  occ. eigenvalues --   -0.68335  -0.68093  -0.66940  -0.66589  -0.66166
 Alpha  occ. eigenvalues --   -0.65930  -0.65114  -0.64465  -0.63502  -0.60925
 Alpha  occ. eigenvalues --   -0.59880  -0.59432  -0.58325  -0.57788  -0.57282
 Alpha  occ. eigenvalues --   -0.57124  -0.56757  -0.56412  -0.56163  -0.55853
 Alpha  occ. eigenvalues --   -0.55707  -0.55528  -0.55250  -0.55187  -0.54999
 Alpha  occ. eigenvalues --   -0.54573  -0.54326  -0.53939  -0.53797  -0.53419
 Alpha  occ. eigenvalues --   -0.53261  -0.53204  -0.52895  -0.52489  -0.52272
 Alpha  occ. eigenvalues --   -0.52208  -0.52024  -0.51902  -0.51488  -0.51299
 Alpha  occ. eigenvalues --   -0.50648  -0.50516  -0.50144  -0.50080  -0.50006
 Alpha  occ. eigenvalues --   -0.49681  -0.49509  -0.49050  -0.48960  -0.48840
 Alpha  occ. eigenvalues --   -0.48455  -0.48238  -0.47601  -0.46318  -0.46258
 Alpha  occ. eigenvalues --   -0.45768  -0.45241  -0.44644  -0.44097  -0.38572
 Alpha  occ. eigenvalues --   -0.37343  -0.36666  -0.35780  -0.29182
 Alpha virt. eigenvalues --    0.01959   0.03200   0.05818   0.06621   0.06953
 Alpha virt. eigenvalues --    0.09294   0.12085   0.13307   0.14060   0.14664
 Alpha virt. eigenvalues --    0.16393   0.17471   0.17957   0.18364   0.19530
 Alpha virt. eigenvalues --    0.20456   0.20516   0.21011   0.21109   0.21973
 Alpha virt. eigenvalues --    0.22019   0.22371   0.22454   0.23018   0.23310
 Alpha virt. eigenvalues --    0.24044   0.24862   0.25089   0.25573   0.26041
 Alpha virt. eigenvalues --    0.27112   0.27944   0.28437   0.29191   0.29731
 Alpha virt. eigenvalues --    0.30200   0.31024   0.32341   0.32841   0.33852
 Alpha virt. eigenvalues --    0.36506   0.38228   0.38851   0.40661   0.41457
 Alpha virt. eigenvalues --    0.46378   0.47354   0.48788   0.49409   0.49905
 Alpha virt. eigenvalues --    0.50923   0.51184   0.51751   0.52566   0.53218
 Alpha virt. eigenvalues --    0.53533   0.53676   0.54526   0.54800   0.55442
 Alpha virt. eigenvalues --    0.56099   0.56922   0.57320   0.57873   0.58314
 Alpha virt. eigenvalues --    0.59604   0.60601   0.61513   0.62233   0.63006
 Alpha virt. eigenvalues --    0.63848   0.65471   0.66891   0.67180   0.68880
 Alpha virt. eigenvalues --    0.69704   0.70198   0.71638   0.72204   0.73413
 Alpha virt. eigenvalues --    0.73657   0.75056   0.77145   0.77935   0.79767
 Alpha virt. eigenvalues --    0.82448   0.84599   0.85271   0.85641   0.86527
 Alpha virt. eigenvalues --    0.87890   0.88606   0.89260   0.90222   0.90449
 Alpha virt. eigenvalues --    0.91712   0.92312   0.93154   0.95834   0.96727
 Alpha virt. eigenvalues --    0.97390   0.98331   0.99075   1.00905   1.01049
 Alpha virt. eigenvalues --    1.02263   1.02921   1.03394   1.03999   1.04247
 Alpha virt. eigenvalues --    1.05531   1.06091   1.06967   1.08505   1.09463
 Alpha virt. eigenvalues --    1.09582   1.09907   1.10418   1.12423   1.12955
 Alpha virt. eigenvalues --    1.13624   1.14391   1.14871   1.15256   1.15556
 Alpha virt. eigenvalues --    1.16532   1.16695   1.18116   1.18994   1.19367
 Alpha virt. eigenvalues --    1.19873   1.20235   1.20802   1.22714   1.23511
 Alpha virt. eigenvalues --    1.24293   1.24674   1.26149   1.27401   1.27641
 Alpha virt. eigenvalues --    1.28289   1.28537   1.29092   1.29849   1.30383
 Alpha virt. eigenvalues --    1.31185   1.31896   1.33221   1.33357   1.34006
 Alpha virt. eigenvalues --    1.34375   1.34660   1.34751   1.34929   1.35733
 Alpha virt. eigenvalues --    1.36298   1.36813   1.37316   1.37688   1.38466
 Alpha virt. eigenvalues --    1.38983   1.39709   1.39880   1.40452   1.41253
 Alpha virt. eigenvalues --    1.41780   1.42824   1.43022   1.43194   1.44253
 Alpha virt. eigenvalues --    1.44815   1.45655   1.46293   1.46684   1.47096
 Alpha virt. eigenvalues --    1.47273   1.48498   1.49839   1.50583   1.50901
 Alpha virt. eigenvalues --    1.51663   1.52477   1.53015   1.53193   1.54215
 Alpha virt. eigenvalues --    1.54782   1.55178   1.55457   1.56591   1.58362
 Alpha virt. eigenvalues --    1.59280   1.59581   1.60070   1.60731   1.61196
 Alpha virt. eigenvalues --    1.62155   1.63104   1.63318   1.64576   1.66231
 Alpha virt. eigenvalues --    1.67582   1.67879   1.68505   1.68868   1.70933
 Alpha virt. eigenvalues --    1.71003   1.72410   1.72814   1.73106   1.74288
 Alpha virt. eigenvalues --    1.74658   1.75309   1.75566   1.76724   1.77421
 Alpha virt. eigenvalues --    1.78365   1.79360   1.79774   1.80311   1.80690
 Alpha virt. eigenvalues --    1.81442   1.82570   1.83700   1.83887   1.84140
 Alpha virt. eigenvalues --    1.84720   1.85061   1.85638   1.86063   1.86512
 Alpha virt. eigenvalues --    1.87413   1.87824   1.88149   1.88230   1.89043
 Alpha virt. eigenvalues --    1.89511   1.90601   1.90923   1.91470   1.92044
 Alpha virt. eigenvalues --    1.92194   1.92419   1.92716   1.93369   1.93808
 Alpha virt. eigenvalues --    1.94125   1.94734   1.94770   1.95521   1.96646
 Alpha virt. eigenvalues --    1.96922   1.97218   1.97623   1.98136   1.98407
 Alpha virt. eigenvalues --    1.99070   1.99364   2.00007   2.00428   2.00768
 Alpha virt. eigenvalues --    2.00830   2.01186   2.01404   2.01655   2.02207
 Alpha virt. eigenvalues --    2.02647   2.02926   2.03524   2.03735   2.04089
 Alpha virt. eigenvalues --    2.04193   2.04805   2.05233   2.05441   2.06155
 Alpha virt. eigenvalues --    2.06701   2.07896   2.08433   2.08822   2.09369
 Alpha virt. eigenvalues --    2.09463   2.10545   2.11100   2.11360   2.12086
 Alpha virt. eigenvalues --    2.12350   2.12541   2.12786   2.14446   2.15434
 Alpha virt. eigenvalues --    2.15962   2.16370   2.17983   2.18574   2.18994
 Alpha virt. eigenvalues --    2.19349   2.19964   2.21179   2.21636   2.22591
 Alpha virt. eigenvalues --    2.23372   2.24214   2.24712   2.25970   2.27482
 Alpha virt. eigenvalues --    2.27695   2.28020   2.28628   2.30937   2.31196
 Alpha virt. eigenvalues --    2.31615   2.33092   2.35918   2.36796   2.37766
 Alpha virt. eigenvalues --    2.38681   2.39208   2.39924   2.40690   2.41084
 Alpha virt. eigenvalues --    2.41352   2.43098   2.44446   2.45352   2.47189
 Alpha virt. eigenvalues --    2.48411   2.48568   2.49461   2.50341   2.51184
 Alpha virt. eigenvalues --    2.52319   2.53312   2.53826   2.54118   2.55199
 Alpha virt. eigenvalues --    2.56712   2.60477   2.61307   2.61562   2.62718
 Alpha virt. eigenvalues --    2.63621   2.64406   2.65008   2.65809   2.67077
 Alpha virt. eigenvalues --    2.68551   2.69962   2.70840   2.71607   2.72848
 Alpha virt. eigenvalues --    2.74400   2.75669   2.76598   2.78318   2.78707
 Alpha virt. eigenvalues --    2.80446   2.81627   2.83268   2.84100   2.84416
 Alpha virt. eigenvalues --    2.86359   2.86936   2.88309   2.88931   2.90746
 Alpha virt. eigenvalues --    2.91249   2.92003   2.92915   2.94054   2.94238
 Alpha virt. eigenvalues --    2.94656   2.95182   2.95898   2.98502   2.98699
 Alpha virt. eigenvalues --    3.00214   3.03784   3.04674   3.05017   3.05390
 Alpha virt. eigenvalues --    3.05954   3.07086   3.07492   3.07799   3.09839
 Alpha virt. eigenvalues --    3.10807   3.12660   3.13688   3.16794   3.17360
 Alpha virt. eigenvalues --    3.18532   3.19886   3.21640   3.23104   3.24397
 Alpha virt. eigenvalues --    3.25263   3.29387   3.30027   3.30982   3.32419
 Alpha virt. eigenvalues --    3.34665   3.36591   3.37519   3.40152   3.46708
 Alpha virt. eigenvalues --    3.51780   3.56921   3.74311   4.05022   4.09115
 Alpha virt. eigenvalues --    4.13335   4.18456   4.21106   4.27300   4.29532
 Alpha virt. eigenvalues --    4.34641   4.35722   4.40010   4.40143   4.45565
 Alpha virt. eigenvalues --    4.47217   4.49232   4.53555   4.56406   4.58865
 Alpha virt. eigenvalues --    4.64270   4.66276   4.71897   4.77697   4.79744
 Alpha virt. eigenvalues --    4.81780   4.88018   4.94076   5.09903   5.21475
 Alpha virt. eigenvalues --    5.25541   5.33697   5.43842   5.47913   5.56504
 Alpha virt. eigenvalues --    5.67337   5.67746   6.19884   6.22626   6.36758
 Alpha virt. eigenvalues --    6.65723
          Condensed to atoms (all electrons):
               1          2          3          4          5          6
     1  C    5.121096   0.650408  -0.077097  -0.007750   0.003909  -0.000122
     2  C    0.650408   4.320221   0.289701  -0.033662  -0.023139   0.001250
     3  N   -0.077097   0.289701   7.161427   0.284646   0.285486  -0.087311
     4  C   -0.007750  -0.033662   0.284646   4.811543  -0.030484  -0.010247
     5  C    0.003909  -0.023139   0.285486  -0.030484   4.197024   0.580334
     6  O   -0.000122   0.001250  -0.087311  -0.010247   0.580334   8.100736
     7  N   -0.000053   0.004123  -0.099264   0.003046   0.189792  -0.090187
     8  C    0.000002   0.000152   0.002077  -0.000028  -0.006211   0.017898
     9  F    0.000000  -0.000002  -0.000024   0.000000   0.000625   0.000017
    10  F    0.000000   0.000001   0.000022   0.000003   0.005526  -0.011997
    11  C    0.000000   0.000067  -0.000165   0.000000  -0.003424  -0.003720
    12  F    0.000000   0.000004   0.000000   0.000000  -0.000371   0.000007
    13  O    0.000000   0.000030  -0.000272   0.000000   0.004753  -0.002778
    14  C    0.000000   0.000000  -0.000004   0.000000   0.000100   0.000488
    15  F    0.000000   0.000000   0.000000   0.000000   0.000002  -0.000003
    16  F    0.000000   0.000000   0.000000   0.000000   0.000000   0.000000
    17  F    0.000000   0.000000   0.000000   0.000000  -0.000013  -0.000004
    18  C    0.000000   0.000000  -0.000001   0.000000  -0.000005  -0.000033
    19  F    0.000000   0.000000   0.000000   0.000000   0.000002  -0.000001
    20  F    0.000000   0.000000   0.000000   0.000000   0.000002   0.000000
    21  F    0.000000   0.000000   0.000000   0.000000   0.000000   0.000000
    22  C    0.002827  -0.018491  -0.005770   0.000238  -0.010083  -0.000374
    23  O   -0.000116   0.000548   0.000278   0.000002  -0.000169  -0.000031
    24  N   -0.078149   0.240584  -0.041362   0.002868  -0.006793   0.000190
    25  C   -0.000822  -0.017044   0.001337  -0.000012   0.000135   0.000001
    26  F   -0.009434  -0.000702   0.000069   0.000001  -0.000003   0.000000
    27  F    0.000038   0.000632  -0.000012   0.000000  -0.000002   0.000000
    28  C   -0.000966  -0.001290  -0.000113   0.000001   0.000029   0.000000
    29  F    0.000002   0.000029   0.000000   0.000000   0.000000   0.000000
    30  O   -0.003945   0.001303   0.000000   0.000000   0.000002   0.000000
    31  C    0.000348   0.000111  -0.000001   0.000000   0.000000   0.000000
    32  F   -0.000015   0.000000   0.000000   0.000000   0.000000   0.000000
    33  F    0.000000   0.000000   0.000000   0.000000   0.000000   0.000000
    34  F   -0.000006  -0.000002   0.000000   0.000000   0.000000   0.000000
    35  C   -0.000035   0.000188   0.000005   0.000000  -0.000007   0.000000
    36  F    0.000000  -0.000006   0.000000   0.000000   0.000000   0.000000
    37  F    0.000000   0.000000   0.000000   0.000000   0.000000   0.000000
    38  F    0.000018   0.000197  -0.000006   0.000000   0.000016   0.000000
    39  H    0.369827  -0.013195   0.003742   0.000041  -0.000060   0.000001
    40  H    0.374258  -0.016441  -0.011972   0.005465   0.000096  -0.000002
    41  H    0.002895  -0.003877  -0.042967   0.393897   0.001208   0.000581
    42  H    0.000409   0.002596  -0.025999   0.386900  -0.002464   0.014895
    43  H    0.003179  -0.000113  -0.040864   0.390514   0.001218   0.000612
               7          8          9         10         11         12
     1  C   -0.000053   0.000002   0.000000   0.000000   0.000000   0.000000
     2  C    0.004123   0.000152  -0.000002   0.000001   0.000067   0.000004
     3  N   -0.099264   0.002077  -0.000024   0.000022  -0.000165   0.000000
     4  C    0.003046  -0.000028   0.000000   0.000003   0.000000   0.000000
     5  C    0.189792  -0.006211   0.000625   0.005526  -0.003424  -0.000371
     6  O   -0.090187   0.017898   0.000017  -0.011997  -0.003720   0.000007
     7  N    7.584427   0.183697  -0.040091  -0.036531  -0.068226  -0.001349
     8  C    0.183697   4.362370   0.270718   0.266535   0.209588  -0.022158
     9  F   -0.040091   0.270718   9.101138  -0.041980  -0.024267  -0.000113
    10  F   -0.036531   0.266535  -0.041980   9.101106  -0.035672   0.000302
    11  C   -0.068226   0.209588  -0.024267  -0.035672   4.997388   0.219723
    12  F   -0.001349  -0.022158  -0.000113   0.000302   0.219723   9.124884
    13  O    0.000290  -0.027457   0.000541   0.000733   0.155886  -0.053238
    14  C   -0.000205   0.001099   0.000004  -0.000058   0.001659  -0.001065
    15  F    0.000001  -0.000166   0.000000   0.000001  -0.008983  -0.000016
    16  F   -0.000002   0.000180   0.000000   0.000000   0.012418  -0.001510
    17  F    0.000001  -0.000032   0.000000   0.000000   0.000509  -0.000021
    18  C    0.003162  -0.029538  -0.001256   0.008008   0.206097  -0.014696
    19  F   -0.000029  -0.000229  -0.000148  -0.000926  -0.032275   0.000311
    20  F    0.000046   0.006270  -0.002523  -0.000914  -0.029396  -0.000259
    21  F   -0.000013   0.001297  -0.000002   0.000001  -0.031526  -0.000054
    22  C    0.197147  -0.014099   0.005142   0.000882  -0.000227   0.008668
    23  O   -0.087918   0.016099  -0.009643   0.000014  -0.002315  -0.004420
    24  N   -0.098055   0.002032   0.000001  -0.000022  -0.000347   0.000000
    25  C    0.001090  -0.000040   0.000007   0.000000   0.000001   0.000007
    26  F   -0.000019   0.000000   0.000000   0.000000   0.000000   0.000000
    27  F    0.000035   0.000013   0.000000   0.000000  -0.000002   0.000000
    28  C   -0.000157   0.000002   0.000000   0.000000   0.000000   0.000000
    29  F    0.000000   0.000000   0.000000   0.000000   0.000000   0.000000
    30  O   -0.000002   0.000000   0.000000   0.000000   0.000000   0.000000
    31  C    0.000000   0.000000   0.000000   0.000000   0.000000   0.000000
    32  F    0.000000   0.000000   0.000000   0.000000   0.000000   0.000000
    33  F    0.000000   0.000000   0.000000   0.000000   0.000000   0.000000
    34  F    0.000000   0.000000   0.000000   0.000000   0.000000   0.000000
    35  C   -0.000109  -0.000004  -0.000008   0.000000   0.000000   0.000000
    36  F   -0.000008   0.000001   0.000000   0.000000   0.000000   0.000000
    37  F    0.000000   0.000000   0.000000   0.000000   0.000000   0.000000
    38  F   -0.001088   0.000048  -0.000002   0.000000   0.000001   0.000000
    39  H    0.000003   0.000000   0.000000   0.000000   0.000000   0.000000
    40  H   -0.000008   0.000000   0.000000   0.000000   0.000000   0.000000
    41  H   -0.000082  -0.000002   0.000000   0.000000   0.000000   0.000000
    42  H    0.000765   0.000002   0.000000   0.000004   0.000000   0.000000
    43  H   -0.000035   0.000003   0.000000   0.000000   0.000000   0.000000
              13         14         15         16         17         18
     1  C    0.000000   0.000000   0.000000   0.000000   0.000000   0.000000
     2  C    0.000030   0.000000   0.000000   0.000000   0.000000   0.000000
     3  N   -0.000272  -0.000004   0.000000   0.000000   0.000000  -0.000001
     4  C    0.000000   0.000000   0.000000   0.000000   0.000000   0.000000
     5  C    0.004753   0.000100   0.000002   0.000000  -0.000013  -0.000005
     6  O   -0.002778   0.000488  -0.000003   0.000000  -0.000004  -0.000033
     7  N    0.000290  -0.000205   0.000001  -0.000002   0.000001   0.003162
     8  C   -0.027457   0.001099  -0.000166   0.000180  -0.000032  -0.029538
     9  F    0.000541   0.000004   0.000000   0.000000   0.000000  -0.001256
    10  F    0.000733  -0.000058   0.000001   0.000000   0.000000   0.008008
    11  C    0.155886   0.001659  -0.008983   0.012418   0.000509   0.206097
    12  F   -0.053238  -0.001065  -0.000016  -0.001510  -0.000021  -0.014696
    13  O    8.350587   0.235758  -0.047621  -0.046210  -0.039540  -0.026824
    14  C    0.235758   3.825301   0.302104   0.294871   0.338460  -0.003740
    15  F   -0.047621   0.302104   9.059148  -0.033935  -0.037484   0.017639
    16  F   -0.046210   0.294871  -0.033935   9.060197  -0.036745  -0.004223
    17  F   -0.039540   0.338460  -0.037484  -0.036745   9.015786  -0.000028
    18  C   -0.026824  -0.003740   0.017639  -0.004223  -0.000028   4.198914
    19  F    0.000315  -0.000391  -0.000456   0.000014   0.000000   0.267790
    20  F    0.000543   0.000059   0.000000   0.000000   0.000000   0.288079
    21  F   -0.001527   0.012288  -0.006713  -0.001995  -0.000004   0.279894
    22  C    0.000165  -0.000010   0.000000   0.000001   0.000000   0.000312
    23  O   -0.000036  -0.000005   0.000000   0.000000   0.000000  -0.000023
    24  N   -0.000012   0.000000   0.000000   0.000000   0.000000  -0.000001
    25  C    0.000000   0.000000   0.000000   0.000000   0.000000   0.000000
    26  F    0.000000   0.000000   0.000000   0.000000   0.000000   0.000000
    27  F    0.000000   0.000000   0.000000   0.000000   0.000000   0.000000
    28  C    0.000000   0.000000   0.000000   0.000000   0.000000   0.000000
    29  F    0.000000   0.000000   0.000000   0.000000   0.000000   0.000000
    30  O    0.000000   0.000000   0.000000   0.000000   0.000000   0.000000
    31  C    0.000000   0.000000   0.000000   0.000000   0.000000   0.000000
    32  F    0.000000   0.000000   0.000000   0.000000   0.000000   0.000000
    33  F    0.000000   0.000000   0.000000   0.000000   0.000000   0.000000
    34  F    0.000000   0.000000   0.000000   0.000000   0.000000   0.000000
    35  C    0.000000   0.000000   0.000000   0.000000   0.000000   0.000000
    36  F    0.000000   0.000000   0.000000   0.000000   0.000000   0.000000
    37  F    0.000000   0.000000   0.000000   0.000000   0.000000   0.000000
    38  F    0.000000   0.000000   0.000000   0.000000   0.000000   0.000000
    39  H    0.000000   0.000000   0.000000   0.000000   0.000000   0.000000
    40  H    0.000000   0.000000   0.000000   0.000000   0.000000   0.000000
    41  H    0.000000   0.000000   0.000000   0.000000   0.000000   0.000000
    42  H    0.000001   0.000000   0.000000   0.000000   0.000000   0.000000
    43  H    0.000000   0.000000   0.000000   0.000000   0.000000   0.000000
              19         20         21         22         23         24
     1  C    0.000000   0.000000   0.000000   0.002827  -0.000116  -0.078149
     2  C    0.000000   0.000000   0.000000  -0.018491   0.000548   0.240584
     3  N    0.000000   0.000000   0.000000  -0.005770   0.000278  -0.041362
     4  C    0.000000   0.000000   0.000000   0.000238   0.000002   0.002868
     5  C    0.000002   0.000002   0.000000  -0.010083  -0.000169  -0.006793
     6  O   -0.000001   0.000000   0.000000  -0.000374  -0.000031   0.000190
     7  N   -0.000029   0.000046  -0.000013   0.197147  -0.087918  -0.098055
     8  C   -0.000229   0.006270   0.001297  -0.014099   0.016099   0.002032
     9  F   -0.000148  -0.002523  -0.000002   0.005142  -0.009643   0.000001
    10  F   -0.000926  -0.000914   0.000001   0.000882   0.000014  -0.000022
    11  C   -0.032275  -0.029396  -0.031526  -0.000227  -0.002315  -0.000347
    12  F    0.000311  -0.000259  -0.000054   0.008668  -0.004420   0.000000
    13  O    0.000315   0.000543  -0.001527   0.000165  -0.000036  -0.000012
    14  C   -0.000391   0.000059   0.012288  -0.000010  -0.000005   0.000000
    15  F   -0.000456   0.000000  -0.006713   0.000000   0.000000   0.000000
    16  F    0.000014   0.000000  -0.001995   0.000001   0.000000   0.000000
    17  F    0.000000   0.000000  -0.000004   0.000000   0.000000   0.000000
    18  C    0.267790   0.288079   0.279894   0.000312  -0.000023  -0.000001
    19  F    9.088980  -0.038007  -0.038967   0.000000   0.000000   0.000000
    20  F   -0.038007   9.059734  -0.040028  -0.000007  -0.000001   0.000000
    21  F   -0.038967  -0.040028   9.088194   0.000000   0.000000   0.000000
    22  C    0.000000  -0.000007   0.000000   4.241051   0.527500   0.225050
    23  O    0.000000  -0.000001   0.000000   0.527500   8.157917  -0.089650
    24  N    0.000000   0.000000   0.000000   0.225050  -0.089650   7.538035
    25  C    0.000000   0.000000   0.000000  -0.011198   0.016556   0.145340
    26  F    0.000000   0.000000   0.000000   0.000223   0.000022  -0.043164
    27  F    0.000000   0.000000   0.000000   0.005601  -0.015884  -0.040860
    28  C    0.000000   0.000000   0.000000  -0.001056  -0.006671  -0.079995
    29  F    0.000000   0.000000   0.000000   0.000050   0.000004   0.001447
    30  O    0.000000   0.000000   0.000000  -0.000061   0.000026   0.003043
    31  C    0.000000   0.000000   0.000000   0.000001   0.000000  -0.000191
    32  F    0.000000   0.000000   0.000000   0.000000   0.000000   0.000000
    33  F    0.000000   0.000000   0.000000   0.000000   0.000000   0.000000
    34  F    0.000000   0.000000   0.000000  -0.000002   0.000000   0.000004
    35  C    0.000000   0.000000   0.000000   0.001450   0.009290   0.001517
    36  F    0.000000   0.000000   0.000000  -0.000571  -0.001525  -0.000336
    37  F    0.000000   0.000000   0.000000   0.000007  -0.000004  -0.000008
    38  F    0.000000   0.000000   0.000000   0.016365  -0.007851  -0.000725
    39  H    0.000000   0.000000   0.000000  -0.000014   0.000000  -0.007915
    40  H    0.000000   0.000000   0.000000  -0.000041   0.000001   0.003722
    41  H    0.000000   0.000000   0.000000   0.000033   0.000000  -0.000131
    42  H    0.000000   0.000000   0.000000  -0.000016   0.000000  -0.000070
    43  H    0.000000   0.000000   0.000000  -0.000059   0.000000  -0.000045
              25         26         27         28         29         30
     1  C   -0.000822  -0.009434   0.000038  -0.000966   0.000002  -0.003945
     2  C   -0.017044  -0.000702   0.000632  -0.001290   0.000029   0.001303
     3  N    0.001337   0.000069  -0.000012  -0.000113   0.000000   0.000000
     4  C   -0.000012   0.000001   0.000000   0.000001   0.000000   0.000000
     5  C    0.000135  -0.000003  -0.000002   0.000029   0.000000   0.000002
     6  O    0.000001   0.000000   0.000000   0.000000   0.000000   0.000000
     7  N    0.001090  -0.000019   0.000035  -0.000157   0.000000  -0.000002
     8  C   -0.000040   0.000000   0.000013   0.000002   0.000000   0.000000
     9  F    0.000007   0.000000   0.000000   0.000000   0.000000   0.000000
    10  F    0.000000   0.000000   0.000000   0.000000   0.000000   0.000000
    11  C    0.000001   0.000000  -0.000002   0.000000   0.000000   0.000000
    12  F    0.000007   0.000000   0.000000   0.000000   0.000000   0.000000
    13  O    0.000000   0.000000   0.000000   0.000000   0.000000   0.000000
    14  C    0.000000   0.000000   0.000000   0.000000   0.000000   0.000000
    15  F    0.000000   0.000000   0.000000   0.000000   0.000000   0.000000
    16  F    0.000000   0.000000   0.000000   0.000000   0.000000   0.000000
    17  F    0.000000   0.000000   0.000000   0.000000   0.000000   0.000000
    18  C    0.000000   0.000000   0.000000   0.000000   0.000000   0.000000
    19  F    0.000000   0.000000   0.000000   0.000000   0.000000   0.000000
    20  F    0.000000   0.000000   0.000000   0.000000   0.000000   0.000000
    21  F    0.000000   0.000000   0.000000   0.000000   0.000000   0.000000
    22  C   -0.011198   0.000223   0.005601  -0.001056   0.000050  -0.000061
    23  O    0.016556   0.000022  -0.015884  -0.006671   0.000004   0.000026
    24  N    0.145340  -0.043164  -0.040860  -0.079995   0.001447   0.003043
    25  C    4.415278   0.265647   0.287563   0.241623  -0.009867  -0.029968
    26  F    0.265647   9.111333  -0.043898  -0.022931  -0.001333  -0.000450
    27  F    0.287563  -0.043898   9.072594  -0.028368  -0.000676   0.000525
    28  C    0.241623  -0.022931  -0.028368   4.995800   0.213391   0.156854
    29  F   -0.009867  -0.001333  -0.000676   0.213391   9.134191  -0.049457
    30  O   -0.029968  -0.000450   0.000525   0.156854  -0.049457   8.363682
    31  C    0.001053  -0.000059   0.000003  -0.000231   0.000042   0.232844
    32  F   -0.000032   0.000000   0.000000   0.000581  -0.000022  -0.039803
    33  F    0.000145   0.000000   0.000000   0.012566  -0.002323  -0.045570
    34  F   -0.000121   0.000000   0.000000  -0.009725  -0.000024  -0.047466
    35  C   -0.036211   0.001552   0.000642   0.174777  -0.017617  -0.029191
    36  F   -0.000407   0.000001   0.000005  -0.024797  -0.000267   0.000545
    37  F    0.001452  -0.000001  -0.000001  -0.025828  -0.000049  -0.001754
    38  F   -0.002749   0.000000  -0.000094  -0.028388   0.000338   0.000175
    39  H    0.003197   0.009576   0.000095  -0.002868   0.000017   0.005699
    40  H   -0.000084   0.000486   0.000000   0.000035   0.000000   0.000057
    41  H    0.000001   0.000000   0.000000   0.000000   0.000000   0.000000
    42  H    0.000001   0.000000   0.000000   0.000000   0.000000   0.000000
    43  H    0.000000  -0.000002   0.000000   0.000000   0.000000   0.000000
              31         32         33         34         35         36
     1  C    0.000348  -0.000015   0.000000  -0.000006  -0.000035   0.000000
     2  C    0.000111   0.000000   0.000000  -0.000002   0.000188  -0.000006
     3  N   -0.000001   0.000000   0.000000   0.000000   0.000005   0.000000
     4  C    0.000000   0.000000   0.000000   0.000000   0.000000   0.000000
     5  C    0.000000   0.000000   0.000000   0.000000  -0.000007   0.000000
     6  O    0.000000   0.000000   0.000000   0.000000   0.000000   0.000000
     7  N    0.000000   0.000000   0.000000   0.000000  -0.000109  -0.000008
     8  C    0.000000   0.000000   0.000000   0.000000  -0.000004   0.000001
     9  F    0.000000   0.000000   0.000000   0.000000  -0.000008   0.000000
    10  F    0.000000   0.000000   0.000000   0.000000   0.000000   0.000000
    11  C    0.000000   0.000000   0.000000   0.000000   0.000000   0.000000
    12  F    0.000000   0.000000   0.000000   0.000000   0.000000   0.000000
    13  O    0.000000   0.000000   0.000000   0.000000   0.000000   0.000000
    14  C    0.000000   0.000000   0.000000   0.000000   0.000000   0.000000
    15  F    0.000000   0.000000   0.000000   0.000000   0.000000   0.000000
    16  F    0.000000   0.000000   0.000000   0.000000   0.000000   0.000000
    17  F    0.000000   0.000000   0.000000   0.000000   0.000000   0.000000
    18  C    0.000000   0.000000   0.000000   0.000000   0.000000   0.000000
    19  F    0.000000   0.000000   0.000000   0.000000   0.000000   0.000000
    20  F    0.000000   0.000000   0.000000   0.000000   0.000000   0.000000
    21  F    0.000000   0.000000   0.000000   0.000000   0.000000   0.000000
    22  C    0.000001   0.000000   0.000000  -0.000002   0.001450  -0.000571
    23  O    0.000000   0.000000   0.000000   0.000000   0.009290  -0.001525
    24  N   -0.000191   0.000000   0.000000   0.000004   0.001517  -0.000336
    25  C    0.001053  -0.000032   0.000145  -0.000121  -0.036211  -0.000407
    26  F   -0.000059   0.000000   0.000000   0.000000   0.001552   0.000001
    27  F    0.000003   0.000000   0.000000   0.000000   0.000642   0.000005
    28  C   -0.000231   0.000581   0.012566  -0.009725   0.174777  -0.024797
    29  F    0.000042  -0.000022  -0.002323  -0.000024  -0.017617  -0.000267
    30  O    0.232844  -0.039803  -0.045570  -0.047466  -0.029191   0.000545
    31  C    3.822283   0.338546   0.299087   0.302304  -0.004938   0.000076
    32  F    0.338546   9.015284  -0.036581  -0.037904  -0.000033   0.000000
    33  F    0.299087  -0.036581   9.051640  -0.033584  -0.005036  -0.000001
    34  F    0.302304  -0.037904  -0.033584   9.060016   0.017833   0.000000
    35  C   -0.004938  -0.000033  -0.005036   0.017833   4.251446   0.291397
    36  F    0.000076   0.000000  -0.000001   0.000000   0.291397   9.041870
    37  F    0.013092  -0.000004  -0.001894  -0.007344   0.270697  -0.040049
    38  F   -0.000103   0.000000   0.000013  -0.000435   0.249478  -0.034034
    39  H    0.000166   0.000010  -0.000001   0.000007   0.000141   0.000000
    40  H   -0.000002   0.000000   0.000000   0.000000   0.000001   0.000000
    41  H    0.000000   0.000000   0.000000   0.000000   0.000000   0.000000
    42  H    0.000000   0.000000   0.000000   0.000000   0.000000   0.000000
    43  H    0.000000   0.000000   0.000000   0.000000   0.000000   0.000000
              37         38         39         40         41         42
     1  C    0.000000   0.000018   0.369827   0.374258   0.002895   0.000409
     2  C    0.000000   0.000197  -0.013195  -0.016441  -0.003877   0.002596
     3  N    0.000000  -0.000006   0.003742  -0.011972  -0.042967  -0.025999
     4  C    0.000000   0.000000   0.000041   0.005465   0.393897   0.386900
     5  C    0.000000   0.000016  -0.000060   0.000096   0.001208  -0.002464
     6  O    0.000000   0.000000   0.000001  -0.000002   0.000581   0.014895
     7  N    0.000000  -0.001088   0.000003  -0.000008  -0.000082   0.000765
     8  C    0.000000   0.000048   0.000000   0.000000  -0.000002   0.000002
     9  F    0.000000  -0.000002   0.000000   0.000000   0.000000   0.000000
    10  F    0.000000   0.000000   0.000000   0.000000   0.000000   0.000004
    11  C    0.000000   0.000001   0.000000   0.000000   0.000000   0.000000
    12  F    0.000000   0.000000   0.000000   0.000000   0.000000   0.000000
    13  O    0.000000   0.000000   0.000000   0.000000   0.000000   0.000001
    14  C    0.000000   0.000000   0.000000   0.000000   0.000000   0.000000
    15  F    0.000000   0.000000   0.000000   0.000000   0.000000   0.000000
    16  F    0.000000   0.000000   0.000000   0.000000   0.000000   0.000000
    17  F    0.000000   0.000000   0.000000   0.000000   0.000000   0.000000
    18  C    0.000000   0.000000   0.000000   0.000000   0.000000   0.000000
    19  F    0.000000   0.000000   0.000000   0.000000   0.000000   0.000000
    20  F    0.000000   0.000000   0.000000   0.000000   0.000000   0.000000
    21  F    0.000000   0.000000   0.000000   0.000000   0.000000   0.000000
    22  C    0.000007   0.016365  -0.000014  -0.000041   0.000033  -0.000016
    23  O   -0.000004  -0.007851   0.000000   0.000001   0.000000   0.000000
    24  N   -0.000008  -0.000725  -0.007915   0.003722  -0.000131  -0.000070
    25  C    0.001452  -0.002749   0.003197  -0.000084   0.000001   0.000001
    26  F   -0.000001   0.000000   0.009576   0.000486   0.000000   0.000000
    27  F   -0.000001  -0.000094   0.000095   0.000000   0.000000   0.000000
    28  C   -0.025828  -0.028388  -0.002868   0.000035   0.000000   0.000000
    29  F   -0.000049   0.000338   0.000017   0.000000   0.000000   0.000000
    30  O   -0.001754   0.000175   0.005699   0.000057   0.000000   0.000000
    31  C    0.013092  -0.000103   0.000166  -0.000002   0.000000   0.000000
    32  F   -0.000004   0.000000   0.000010   0.000000   0.000000   0.000000
    33  F   -0.001894   0.000013  -0.000001   0.000000   0.000000   0.000000
    34  F   -0.007344  -0.000435   0.000007   0.000000   0.000000   0.000000
    35  C    0.270697   0.249478   0.000141   0.000001   0.000000   0.000000
    36  F   -0.040049  -0.034034   0.000000   0.000000   0.000000   0.000000
    37  F    9.088373  -0.038125   0.000000   0.000000   0.000000   0.000000
    38  F   -0.038125   9.092764  -0.000001   0.000000   0.000000   0.000000
    39  H    0.000000  -0.000001   0.530850  -0.032624   0.000076  -0.000008
    40  H    0.000000   0.000000  -0.032624   0.557163   0.000025   0.000153
    41  H    0.000000   0.000000   0.000076   0.000025   0.563524  -0.026095
    42  H    0.000000   0.000000  -0.000008   0.000153  -0.026095   0.490585
    43  H    0.000000   0.000000   0.000087  -0.001141  -0.036745  -0.022748
              43
     1  C    0.003179
     2  C   -0.000113
     3  N   -0.040864
     4  C    0.390514
     5  C    0.001218
     6  O    0.000612
     7  N   -0.000035
     8  C    0.000003
     9  F    0.000000
    10  F    0.000000
    11  C    0.000000
    12  F    0.000000
    13  O    0.000000
    14  C    0.000000
    15  F    0.000000
    16  F    0.000000
    17  F    0.000000
    18  C    0.000000
    19  F    0.000000
    20  F    0.000000
    21  F    0.000000
    22  C   -0.000059
    23  O    0.000000
    24  N   -0.000045
    25  C    0.000000
    26  F   -0.000002
    27  F    0.000000
    28  C    0.000000
    29  F    0.000000
    30  O    0.000000
    31  C    0.000000
    32  F    0.000000
    33  F    0.000000
    34  F    0.000000
    35  C    0.000000
    36  F    0.000000
    37  F    0.000000
    38  F    0.000000
    39  H    0.000087
    40  H   -0.001141
    41  H   -0.036745
    42  H   -0.022748
    43  H    0.558501
 Mulliken charges:
               1
     1  C   -0.350706
     2  C    0.615816
     3  N   -0.595587
     4  C   -0.196980
     5  C    0.812967
     6  O   -0.510200
     7  N   -0.644193
     8  C    0.759881
     9  F   -0.258133
    10  F   -0.255037
    11  C    0.437206
    12  F   -0.254635
    13  O   -0.504088
    14  C    0.993287
    15  F   -0.243518
    16  F   -0.243062
    17  F   -0.240885
    18  C    0.810472
    19  F   -0.245984
    20  F   -0.243599
    21  F   -0.260845
    22  C    0.829368
    23  O   -0.501995
    24  N   -0.676002
    25  C    0.728123
    26  F   -0.266915
    27  F   -0.237948
    28  C    0.437724
    29  F   -0.267877
    30  O   -0.517086
    31  C    0.995571
    32  F   -0.240026
    33  F   -0.238462
    34  F   -0.243553
    35  C    0.822775
    36  F   -0.231896
    37  F   -0.258559
    38  F   -0.245810
    39  H    0.133152
    40  H    0.120855
    41  H    0.147658
    42  H    0.181089
    43  H    0.147639
 Sum of Mulliken charges =   0.00000
 Mulliken charges with hydrogens summed into heavy atoms:
               1
     1  C   -0.096700
     2  C    0.615816
     3  N   -0.595587
     4  C    0.279405
     5  C    0.812967
     6  O   -0.510200
     7  N   -0.644193
     8  C    0.759881
     9  F   -0.258133
    10  F   -0.255037
    11  C    0.437206
    12  F   -0.254635
    13  O   -0.504088
    14  C    0.993287
    15  F   -0.243518
    16  F   -0.243062
    17  F   -0.240885
    18  C    0.810472
    19  F   -0.245984
    20  F   -0.243599
    21  F   -0.260845
    22  C    0.829368
    23  O   -0.501995
    24  N   -0.676002
    25  C    0.728123
    26  F   -0.266915
    27  F   -0.237948
    28  C    0.437724
    29  F   -0.267877
    30  O   -0.517086
    31  C    0.995571
    32  F   -0.240026
    33  F   -0.238462
    34  F   -0.243553
    35  C    0.822775
    36  F   -0.231896
    37  F   -0.258559
    38  F   -0.245810
 Electronic spatial extent (au):  <R**2>=          18104.7659
 Charge=              0.0000 electrons
 Dipole moment (field-independent basis, Debye):
    X=             -2.0612    Y=              2.3332    Z=              3.7517  Tot=              4.8752
 Quadrupole moment (field-independent basis, Debye-Ang):
   XX=           -206.1817   YY=           -204.3931   ZZ=           -198.4181
   XY=              4.1111   XZ=             -3.8668   YZ=              5.0524
 Traceless Quadrupole moment (field-independent basis, Debye-Ang):
   XX=             -3.1840   YY=             -1.3955   ZZ=              4.5795
   XY=              4.1111   XZ=             -3.8668   YZ=              5.0524
 Octapole moment (field-independent basis, Debye-Ang**2):
  XXX=            -54.7064  YYY=             95.2004  ZZZ=            330.4497  XYY=            -19.2429
  XXY=             45.8737  XXZ=             84.0110  XZZ=            -20.0798  YZZ=             51.0866
  YYZ=             96.6769  XYZ=              3.0656
 Hexadecapole moment (field-independent basis, Debye-Ang**3):
 XXXX=         -12740.5325 YYYY=          -2892.3961 ZZZZ=          -3106.8374 XXXY=           1501.9781
 XXXZ=            -75.1760 YYYX=           1481.2849 YYYZ=           -345.0858 ZZZX=            -56.7620
 ZZZY=           -295.6718 XXYY=          -2622.8846 XXZZ=          -2710.9822 YYZZ=          -1012.4354
 XXYZ=           -106.8312 YYXZ=            -32.3918 ZZXY=            502.7025
 N-N= 5.631859357331D+03 E-N=-1.778817874564D+04  KE= 2.739638062973D+03
 No NMR shielding tensors so no spin-rotation constants.
 Leave Link  601 at Tue Mar  5 18:35:24 2024, MaxMem=  5368709120 cpu:         3.0
 (Enter /home/k0335/k033513/app/g09/l9999.exe)
 1\1\GINC-C18U06N3\SP\RCAM-B3LYP\6-31G(d,p)\C13H5F18N3O4\K033513\05-Mar
 -2024\0\\#p CAM-B3LYP/6-31G(d,p) SCRF=(PCM,Solvent=Generic,Read) NoSym
 m out=wfn\\Title A1462740670_0\\0,1\C,0,-1.676599,1.919707,2.020855\C,
 0,-0.789551,1.14229,1.371978\N,0,0.219988,0.503358,2.085034\C,0,0.4606
 77,0.806591,3.499012\C,0,1.06597,-0.428142,1.496461\O,0,2.032924,-0.89
 79,2.095883\N,0,0.754297,-0.798093,0.213364\C,0,1.599832,-1.799209,-0.
 419805\F,0,0.857778,-2.466182,-1.352366\F,0,1.893531,-2.774578,0.49051
 5\C,0,2.907537,-1.261875,-1.059113\F,0,2.594852,-0.440676,-2.104391\O,
 0,3.601886,-0.429226,-0.12361\C,0,4.90188,-0.098317,-0.530205\F,0,5.71
 5628,-1.145056,-0.318598\F,0,4.931039,0.257767,-1.823522\F,0,5.330845,
 0.939007,0.213012\C,0,3.644447,-2.505043,-1.577747\F,0,4.077532,-3.294
 899,-0.569237\F,0,2.884671,-3.26994,-2.391597\F,0,4.741433,-2.166296,-
 2.299237\C,0,-0.009159,-0.009208,-0.604578\O,0,0.003057,-0.15741,-1.82
 3874\N,0,-0.810315,0.949088,-0.007115\C,0,-1.674782,1.723578,-0.928558
 \F,0,-1.871621,2.972249,-0.38208\F,0,-1.004872,2.02771,-2.076511\C,0,-
 3.081246,1.148555,-1.256546\F,0,-3.77062,2.129529,-1.926831\O,0,-3.790
 996,0.945438,-0.022865\C,0,-5.051242,0.350288,-0.193375\F,0,-5.768118,
 0.559212,0.926944\F,0,-5.71082,0.875252,-1.235085\F,0,-4.891258,-0.972
 691,-0.356651\C,0,-2.945151,-0.072019,-2.168581\F,0,-2.213738,0.16663,
 -3.273265\F,0,-4.160006,-0.487808,-2.608763\F,0,-2.408047,-1.121261,-1
 .50481\H,0,-2.496313,2.450801,1.554054\H,0,-1.658971,2.071394,3.094987
 \H,0,-0.393763,0.462457,4.090727\H,0,1.352387,0.309995,3.891097\H,0,0.
 604996,1.884932,3.622835\\Version=ES64L-G09RevD.01\HF=-2759.8518144\RM
 SD=8.283e-09\Dipole=-0.810938,0.9179507,1.4760475\Quadrupole=-2.367261
 5,-1.0375101,3.4047716,3.0565286,-2.8748467,3.7563466\PG=C01 [X(C13H5F
 18N3O4)]\\@

 Writing a WFN file to "A1462740670/A1462740670_0.wfn"


 EXPERIENCE IS A WONDERFUL THING.  IT ENABLES
 YOU TO RECOGNIZE A MISTAKE WHEN YOU MAKE IT AGAIN.
           - BACK OF A SUGAR PACKET
 Job cpu time:       0 days  0 hours 21 minutes 31.0 seconds.
 File lengths (MBytes):  RWF=    388 Int=      0 D2E=      0 Chk=     14 Scr=      1
 Normal termination of Gaussian 09 at Tue Mar  5 18:35:27 2024.
