 Entering Gaussian System, Link 0=g09
 Initial command:
 /home/k0335/k033513/app/g09/l1.exe "/home/k0335/k033513/app/g09/scratch/Gau-416928.inp" -scrdir="/home/k0335/k033513/app/g09/scratch/"
 Default is to use a total of  36 processors:
                               36 via shared-memory
                                1 via Linda
 Entering Link 1 = /home/k0335/k033513/app/g09/l1.exe PID=    416929.
  
 Copyright (c) 1988,1990,1992,1993,1995,1998,2003,2009,2013,
            Gaussian, Inc.  All Rights Reserved.
  
 This is part of the Gaussian(R) 09 program.  It is based on
 the Gaussian(R) 03 system (copyright 2003, Gaussian, Inc.),
 the Gaussian(R) 98 system (copyright 1998, Gaussian, Inc.),
 the Gaussian(R) 94 system (copyright 1995, Gaussian, Inc.),
 the Gaussian 92(TM) system (copyright 1992, Gaussian, Inc.),
 the Gaussian 90(TM) system (copyright 1990, Gaussian, Inc.),
 the Gaussian 88(TM) system (copyright 1988, Gaussian, Inc.),
 the Gaussian 86(TM) system (copyright 1986, Carnegie Mellon
 University), and the Gaussian 82(TM) system (copyright 1983,
 Carnegie Mellon University). Gaussian is a federally registered
 trademark of Gaussian, Inc.
  
 This software contains proprietary and confidential information,
 including trade secrets, belonging to Gaussian, Inc.
  
 This software is provided under written license and may be
 used, copied, transmitted, or stored only in accord with that
 written license.
  
 The following legend is applicable only to US Government
 contracts under FAR:
  
                    RESTRICTED RIGHTS LEGEND
  
 Use, reproduction and disclosure by the US Government is
 subject to restrictions as set forth in subparagraphs (a)
 and (c) of the Commercial Computer Software - Restricted
 Rights clause in FAR 52.227-19.
  
 Gaussian, Inc.
 340 Quinnipiac St., Bldg. 40, Wallingford CT 06492
  
  
 ---------------------------------------------------------------
 Warning -- This program may not be used in any manner that
 competes with the business of Gaussian, Inc. or will provide
 assistance to any competitor of Gaussian, Inc.  The licensee
 of this program is prohibited from giving any competitor of
 Gaussian, Inc. access to this program.  By using this program,
 the user acknowledges that Gaussian, Inc. is engaged in the
 business of creating and licensing software in the field of
 computational chemistry and represents and warrants to the
 licensee that it is not a competitor of Gaussian, Inc. and that
 it will not use this program in any manner prohibited above.
 ---------------------------------------------------------------
  

 Cite this work as:
 Gaussian 09, Revision D.01,
 M. J. Frisch, G. W. Trucks, H. B. Schlegel, G. E. Scuseria, 
 M. A. Robb, J. R. Cheeseman, G. Scalmani, V. Barone, B. Mennucci, 
 G. A. Petersson, H. Nakatsuji, M. Caricato, X. Li, H. P. Hratchian, 
 A. F. Izmaylov, J. Bloino, G. Zheng, J. L. Sonnenberg, M. Hada, 
 M. Ehara, K. Toyota, R. Fukuda, J. Hasegawa, M. Ishida, T. Nakajima, 
 Y. Honda, O. Kitao, H. Nakai, T. Vreven, J. A. Montgomery, Jr., 
 J. E. Peralta, F. Ogliaro, M. Bearpark, J. J. Heyd, E. Brothers, 
 K. N. Kudin, V. N. Staroverov, T. Keith, R. Kobayashi, J. Normand, 
 K. Raghavachari, A. Rendell, J. C. Burant, S. S. Iyengar, J. Tomasi, 
 M. Cossi, N. Rega, J. M. Millam, M. Klene, J. E. Knox, J. B. Cross, 
 V. Bakken, C. Adamo, J. Jaramillo, R. Gomperts, R. E. Stratmann, 
 O. Yazyev, A. J. Austin, R. Cammi, C. Pomelli, J. W. Ochterski, 
 R. L. Martin, K. Morokuma, V. G. Zakrzewski, G. A. Voth, 
 P. Salvador, J. J. Dannenberg, S. Dapprich, A. D. Daniels, 
 O. Farkas, J. B. Foresman, J. V. Ortiz, J. Cioslowski, 
 and D. J. Fox, Gaussian, Inc., Wallingford CT, 2013.
 
 ******************************************
 Gaussian 09:  ES64L-G09RevD.01 24-Apr-2013
                 3-Feb-2025 
 ******************************************
 %nprocshared=24
 Will use up to   24 processors via shared memory.
 %mem=40GB
 %rwf=cytopopt/S0/S0_neu.rwf
 %nosave
 %chk=cytopopt/S0/S0_neu.chk
 ----------------------------------------------------------------------
 #p CAM-B3LYP/6-31G(d,p) opt SCRF=(PCM,Solvent=Generic,Read) NoSymm out
 =wfn
 ----------------------------------------------------------------------
 1/14=-1,18=20,19=15,26=3,38=1,40=2/1,3;
 2/9=110,12=2,15=1,17=6,18=5,40=1/2;
 3/5=1,6=6,7=101,11=2,16=1,25=1,30=1,70=2203,71=1,72=-2,74=-40/1,2,3;
 4//1;
 5/5=2,38=5/2;
 6/7=2,8=2,9=2,10=2,28=1/1;
 7/30=1/1,2,3,16;
 1/14=-1,18=20,19=15,26=3/3(2);
 2/9=110,15=1/2;
 99/6=100/99;
 2/9=110,15=1/2;
 3/5=1,6=6,7=101,11=2,16=1,25=1,30=1,70=2205,71=1,72=-2,74=-40/1,2,3;
 4/5=5,16=3,69=1/1;
 5/5=2,38=5/2;
 7/30=1/1,2,3,16;
 1/14=-1,18=20,19=15,26=3/3(-5);
 2/9=110,15=1/2;
 6/7=2,8=2,9=2,10=2,19=2,28=1/1;
 99/6=100,9=1/99;
 Leave Link    1 at Mon Feb  3 22:25:52 2025, MaxMem=  5368709120 cpu:         6.8
 (Enter /home/k0335/k033513/app/g09/l101.exe)
 ------------
 Title S0_neu
 ------------
 Symbolic Z-matrix:
 Charge =  0 Multiplicity = 1
 F                    -0.14261  -0.06756   1.35737 
 C                    -0.43595  -0.14167   0.02813 
 C                    -1.07899   1.14735  -0.44278 
 F                    -0.16507   2.15058  -0.32623 
 C                    -2.34552   1.51949   0.32418 
 F                    -2.8241    2.72416  -0.06633 
 F                    -3.33594   0.62245   0.12686 
 F                    -2.12268   1.58835   1.65541 
 F                    -1.35236   1.08071  -1.77469 
 C                     0.84346  -0.52951  -0.72672 
 O                     0.81325  -1.96964  -0.9403 
 C                    -0.29327  -2.44414  -0.19154 
 F                     0.15938  -2.69348   1.05547 
 F                    -0.73188  -3.60105  -0.71653 
 C                    -1.31238  -1.33601  -0.2138 
 F                    -1.9091   -1.2549   -1.42666 
 F                    -2.28594  -1.46363   0.70404 
 C                     2.18571  -0.20865  -0.04438 
 F                     3.19256  -0.71226  -0.82722 
 C                     2.44777   1.26215   0.21312 
 F                     1.5806    1.76792   1.12021 
 F                     2.33913   2.00007  -0.91313 
 F                     3.69014   1.46941   0.71132 
 F                     2.26434  -0.90636   1.12854 
 F                     0.81945  -0.00379  -1.9762 
 
 NAtoms=     25 NQM=       25 NQMF=       0 NMMI=      0 NMMIF=      0
                NMic=       0 NMicF=      0.
                    Isotopes and Nuclear Properties:
 (Nuclear quadrupole moments (NQMom) in fm**2, nuclear magnetic moments (NMagM)
  in nuclear magnetons)

  Atom         1           2           3           4           5           6           7           8           9          10
 IAtWgt=          19          12          12          19          12          19          19          19          19          12
 AtmWgt=  18.9984033  12.0000000  12.0000000  18.9984033  12.0000000  18.9984033  18.9984033  18.9984033  18.9984033  12.0000000
 NucSpn=           1           0           0           1           0           1           1           1           1           0
 AtZEff=   0.0000000   0.0000000   0.0000000   0.0000000   0.0000000   0.0000000   0.0000000   0.0000000   0.0000000   0.0000000
 NQMom=    0.0000000   0.0000000   0.0000000   0.0000000   0.0000000   0.0000000   0.0000000   0.0000000   0.0000000   0.0000000
 NMagM=    2.6288670   0.0000000   0.0000000   2.6288670   0.0000000   2.6288670   2.6288670   2.6288670   2.6288670   0.0000000
 AtZNuc=   9.0000000   6.0000000   6.0000000   9.0000000   6.0000000   9.0000000   9.0000000   9.0000000   9.0000000   6.0000000

  Atom        11          12          13          14          15          16          17          18          19          20
 IAtWgt=          16          12          19          19          12          19          19          12          19          12
 AtmWgt=  15.9949146  12.0000000  18.9984033  18.9984033  12.0000000  18.9984033  18.9984033  12.0000000  18.9984033  12.0000000
 NucSpn=           0           0           1           1           0           1           1           0           1           0
 AtZEff=   0.0000000   0.0000000   0.0000000   0.0000000   0.0000000   0.0000000   0.0000000   0.0000000   0.0000000   0.0000000
 NQMom=    0.0000000   0.0000000   0.0000000   0.0000000   0.0000000   0.0000000   0.0000000   0.0000000   0.0000000   0.0000000
 NMagM=    0.0000000   0.0000000   2.6288670   2.6288670   0.0000000   2.6288670   2.6288670   0.0000000   2.6288670   0.0000000
 AtZNuc=   8.0000000   6.0000000   9.0000000   9.0000000   6.0000000   9.0000000   9.0000000   6.0000000   9.0000000   6.0000000

  Atom        21          22          23          24          25
 IAtWgt=          19          19          19          19          19
 AtmWgt=  18.9984033  18.9984033  18.9984033  18.9984033  18.9984033
 NucSpn=           1           1           1           1           1
 AtZEff=   0.0000000   0.0000000   0.0000000   0.0000000   0.0000000
 NQMom=    0.0000000   0.0000000   0.0000000   0.0000000   0.0000000
 NMagM=    2.6288670   2.6288670   2.6288670   2.6288670   2.6288670
 AtZNuc=   9.0000000   9.0000000   9.0000000   9.0000000   9.0000000
 Leave Link  101 at Mon Feb  3 22:25:52 2025, MaxMem=  5368709120 cpu:         2.8
 (Enter /home/k0335/k033513/app/g09/l103.exe)

 GradGradGradGradGradGradGradGradGradGradGradGradGradGradGradGradGradGrad
 Berny optimization.
 Initialization pass.
                           ----------------------------
                           !    Initial Parameters    !
                           ! (Angstroms and Degrees)  !
 --------------------------                            --------------------------
 ! Name  Definition              Value          Derivative Info.                !
 --------------------------------------------------------------------------------
 ! R1    R(1,2)                  1.3632         estimate D2E/DX2                !
 ! R2    R(2,3)                  1.5155         estimate D2E/DX2                !
 ! R3    R(2,10)                 1.5353         estimate D2E/DX2                !
 ! R4    R(2,15)                 1.501          estimate D2E/DX2                !
 ! R5    R(3,4)                  1.3621         estimate D2E/DX2                !
 ! R6    R(3,5)                  1.5267         estimate D2E/DX2                !
 ! R7    R(3,9)                  1.3613         estimate D2E/DX2                !
 ! R8    R(5,6)                  1.3538         estimate D2E/DX2                !
 ! R9    R(5,7)                  1.3508         estimate D2E/DX2                !
 ! R10   R(5,8)                  1.3515         estimate D2E/DX2                !
 ! R11   R(10,11)                1.4562         estimate D2E/DX2                !
 ! R12   R(10,18)                1.5395         estimate D2E/DX2                !
 ! R13   R(10,25)                1.3558         estimate D2E/DX2                !
 ! R14   R(11,12)                1.4178         estimate D2E/DX2                !
 ! R15   R(12,13)                1.3499         estimate D2E/DX2                !
 ! R16   R(12,14)                1.344          estimate D2E/DX2                !
 ! R17   R(12,15)                1.5057         estimate D2E/DX2                !
 ! R18   R(15,16)                1.3541         estimate D2E/DX2                !
 ! R19   R(15,17)                1.3441         estimate D2E/DX2                !
 ! R20   R(18,19)                1.3712         estimate D2E/DX2                !
 ! R21   R(18,20)                1.516          estimate D2E/DX2                !
 ! R22   R(18,24)                1.367          estimate D2E/DX2                !
 ! R23   R(20,21)                1.353          estimate D2E/DX2                !
 ! R24   R(20,22)                1.3508         estimate D2E/DX2                !
 ! R25   R(20,23)                1.3545         estimate D2E/DX2                !
 ! A1    A(1,2,3)              110.3674         estimate D2E/DX2                !
 ! A2    A(1,2,10)             108.2891         estimate D2E/DX2                !
 ! A3    A(1,2,15)             109.0292         estimate D2E/DX2                !
 ! A4    A(3,2,10)             114.5619         estimate D2E/DX2                !
 ! A5    A(3,2,15)             112.268          estimate D2E/DX2                !
 ! A6    A(10,2,15)            101.9071         estimate D2E/DX2                !
 ! A7    A(2,3,4)              108.3713         estimate D2E/DX2                !
 ! A8    A(2,3,5)              113.7798         estimate D2E/DX2                !
 ! A9    A(2,3,9)              110.3395         estimate D2E/DX2                !
 ! A10   A(4,3,5)              109.5182         estimate D2E/DX2                !
 ! A11   A(4,3,9)              104.7444         estimate D2E/DX2                !
 ! A12   A(5,3,9)              109.6855         estimate D2E/DX2                !
 ! A13   A(3,5,6)              111.4238         estimate D2E/DX2                !
 ! A14   A(3,5,7)              111.902          estimate D2E/DX2                !
 ! A15   A(3,5,8)              111.7442         estimate D2E/DX2                !
 ! A16   A(6,5,7)              106.8343         estimate D2E/DX2                !
 ! A17   A(6,5,8)              107.2819         estimate D2E/DX2                !
 ! A18   A(7,5,8)              107.3746         estimate D2E/DX2                !
 ! A19   A(2,10,11)            107.7371         estimate D2E/DX2                !
 ! A20   A(2,10,18)            117.1289         estimate D2E/DX2                !
 ! A21   A(2,10,25)            109.9012         estimate D2E/DX2                !
 ! A22   A(11,10,18)           106.8106         estimate D2E/DX2                !
 ! A23   A(11,10,25)           104.3556         estimate D2E/DX2                !
 ! A24   A(18,10,25)           110.065          estimate D2E/DX2                !
 ! A25   A(10,11,12)           105.6472         estimate D2E/DX2                !
 ! A26   A(11,12,13)           106.7376         estimate D2E/DX2                !
 ! A27   A(11,12,14)           109.6627         estimate D2E/DX2                !
 ! A28   A(11,12,15)           105.9099         estimate D2E/DX2                !
 ! A29   A(13,12,14)           108.1366         estimate D2E/DX2                !
 ! A30   A(13,12,15)           112.1213         estimate D2E/DX2                !
 ! A31   A(14,12,15)           114.007          estimate D2E/DX2                !
 ! A32   A(2,15,12)            100.8372         estimate D2E/DX2                !
 ! A33   A(2,15,16)            110.7318         estimate D2E/DX2                !
 ! A34   A(2,15,17)            112.8558         estimate D2E/DX2                !
 ! A35   A(12,15,16)           110.8295         estimate D2E/DX2                !
 ! A36   A(12,15,17)           114.2234         estimate D2E/DX2                !
 ! A37   A(16,15,17)           107.3451         estimate D2E/DX2                !
 ! A38   A(10,18,19)           108.0961         estimate D2E/DX2                !
 ! A39   A(10,18,20)           115.353          estimate D2E/DX2                !
 ! A40   A(10,18,24)           108.9083         estimate D2E/DX2                !
 ! A41   A(19,18,20)           109.0485         estimate D2E/DX2                !
 ! A42   A(19,18,24)           105.0795         estimate D2E/DX2                !
 ! A43   A(20,18,24)           109.8461         estimate D2E/DX2                !
 ! A44   A(18,20,21)           111.4537         estimate D2E/DX2                !
 ! A45   A(18,20,22)           111.9911         estimate D2E/DX2                !
 ! A46   A(18,20,23)           111.6838         estimate D2E/DX2                !
 ! A47   A(21,20,22)           107.6514         estimate D2E/DX2                !
 ! A48   A(21,20,23)           106.5037         estimate D2E/DX2                !
 ! A49   A(22,20,23)           107.2681         estimate D2E/DX2                !
 ! D1    D(1,2,3,4)             64.8905         estimate D2E/DX2                !
 ! D2    D(1,2,3,5)            -57.1855         estimate D2E/DX2                !
 ! D3    D(1,2,3,9)            179.0398         estimate D2E/DX2                !
 ! D4    D(10,2,3,4)           -57.6377         estimate D2E/DX2                !
 ! D5    D(10,2,3,5)          -179.7137         estimate D2E/DX2                !
 ! D6    D(10,2,3,9)            56.5116         estimate D2E/DX2                !
 ! D7    D(15,2,3,4)          -173.2499         estimate D2E/DX2                !
 ! D8    D(15,2,3,5)            64.6741         estimate D2E/DX2                !
 ! D9    D(15,2,3,9)           -59.1006         estimate D2E/DX2                !
 ! D10   D(1,2,10,11)           96.708          estimate D2E/DX2                !
 ! D11   D(1,2,10,18)          -23.6273         estimate D2E/DX2                !
 ! D12   D(1,2,10,25)         -150.1732         estimate D2E/DX2                !
 ! D13   D(3,2,10,11)         -139.645          estimate D2E/DX2                !
 ! D14   D(3,2,10,18)          100.0197         estimate D2E/DX2                !
 ! D15   D(3,2,10,25)          -26.5261         estimate D2E/DX2                !
 ! D16   D(15,2,10,11)         -18.1669         estimate D2E/DX2                !
 ! D17   D(15,2,10,18)        -138.5022         estimate D2E/DX2                !
 ! D18   D(15,2,10,25)          94.9519         estimate D2E/DX2                !
 ! D19   D(1,2,15,12)          -78.7364         estimate D2E/DX2                !
 ! D20   D(1,2,15,16)          163.9042         estimate D2E/DX2                !
 ! D21   D(1,2,15,17)           43.5418         estimate D2E/DX2                !
 ! D22   D(3,2,15,12)          158.6444         estimate D2E/DX2                !
 ! D23   D(3,2,15,16)           41.285          estimate D2E/DX2                !
 ! D24   D(3,2,15,17)          -79.0775         estimate D2E/DX2                !
 ! D25   D(10,2,15,12)          35.5927         estimate D2E/DX2                !
 ! D26   D(10,2,15,16)         -81.7667         estimate D2E/DX2                !
 ! D27   D(10,2,15,17)         157.8709         estimate D2E/DX2                !
 ! D28   D(2,3,5,6)            175.4534         estimate D2E/DX2                !
 ! D29   D(2,3,5,7)            -65.0052         estimate D2E/DX2                !
 ! D30   D(2,3,5,8)             55.4492         estimate D2E/DX2                !
 ! D31   D(4,3,5,6)             54.0134         estimate D2E/DX2                !
 ! D32   D(4,3,5,7)            173.5548         estimate D2E/DX2                !
 ! D33   D(4,3,5,8)            -65.9909         estimate D2E/DX2                !
 ! D34   D(9,3,5,6)            -60.4181         estimate D2E/DX2                !
 ! D35   D(9,3,5,7)             59.1232         estimate D2E/DX2                !
 ! D36   D(9,3,5,8)            179.5776         estimate D2E/DX2                !
 ! D37   D(2,10,11,12)          -8.2599         estimate D2E/DX2                !
 ! D38   D(18,10,11,12)        118.3782         estimate D2E/DX2                !
 ! D39   D(25,10,11,12)       -125.0528         estimate D2E/DX2                !
 ! D40   D(2,10,18,19)         175.8498         estimate D2E/DX2                !
 ! D41   D(2,10,18,20)         -61.8212         estimate D2E/DX2                !
 ! D42   D(2,10,18,24)          62.1939         estimate D2E/DX2                !
 ! D43   D(11,10,18,19)         55.0269         estimate D2E/DX2                !
 ! D44   D(11,10,18,20)        177.3559         estimate D2E/DX2                !
 ! D45   D(11,10,18,24)        -58.629          estimate D2E/DX2                !
 ! D46   D(25,10,18,19)        -57.6848         estimate D2E/DX2                !
 ! D47   D(25,10,18,20)         64.6442         estimate D2E/DX2                !
 ! D48   D(25,10,18,24)       -171.3407         estimate D2E/DX2                !
 ! D49   D(10,11,12,13)        -87.6723         estimate D2E/DX2                !
 ! D50   D(10,11,12,14)        155.4147         estimate D2E/DX2                !
 ! D51   D(10,11,12,15)         31.972          estimate D2E/DX2                !
 ! D52   D(11,12,15,2)         -43.2125         estimate D2E/DX2                !
 ! D53   D(11,12,15,16)         74.0751         estimate D2E/DX2                !
 ! D54   D(11,12,15,17)       -164.5297         estimate D2E/DX2                !
 ! D55   D(13,12,15,2)          72.8355         estimate D2E/DX2                !
 ! D56   D(13,12,15,16)       -169.8769         estimate D2E/DX2                !
 ! D57   D(13,12,15,17)        -48.4817         estimate D2E/DX2                !
 ! D58   D(14,12,15,2)        -163.8743         estimate D2E/DX2                !
 ! D59   D(14,12,15,16)        -46.5868         estimate D2E/DX2                !
 ! D60   D(14,12,15,17)         74.8085         estimate D2E/DX2                !
 ! D61   D(10,18,20,21)         66.1295         estimate D2E/DX2                !
 ! D62   D(10,18,20,22)        -54.5386         estimate D2E/DX2                !
 ! D63   D(10,18,20,23)       -174.8761         estimate D2E/DX2                !
 ! D64   D(19,18,20,21)       -172.0521         estimate D2E/DX2                !
 ! D65   D(19,18,20,22)         67.2798         estimate D2E/DX2                !
 ! D66   D(19,18,20,23)        -53.0577         estimate D2E/DX2                !
 ! D67   D(24,18,20,21)        -57.3923         estimate D2E/DX2                !
 ! D68   D(24,18,20,22)       -178.0604         estimate D2E/DX2                !
 ! D69   D(24,18,20,23)         61.6021         estimate D2E/DX2                !
 --------------------------------------------------------------------------------
 Trust Radius=3.00D-01 FncErr=1.00D-07 GrdErr=1.00D-06
 Number of steps in this run=    150 maximum allowed number of steps=    150.
 GradGradGradGradGradGradGradGradGradGradGradGradGradGradGradGradGradGrad

 Leave Link  103 at Mon Feb  3 22:25:52 2025, MaxMem=  5368709120 cpu:         6.6
 (Enter /home/k0335/k033513/app/g09/l202.exe)
                          Input orientation:                          
 ---------------------------------------------------------------------
 Center     Atomic      Atomic             Coordinates (Angstroms)
 Number     Number       Type             X           Y           Z
 ---------------------------------------------------------------------
      1          9           0       -0.142608   -0.067562    1.357365
      2          6           0       -0.435954   -0.141669    0.028128
      3          6           0       -1.078992    1.147348   -0.442778
      4          9           0       -0.165069    2.150578   -0.326229
      5          6           0       -2.345518    1.519488    0.324177
      6          9           0       -2.824099    2.724160   -0.066332
      7          9           0       -3.335937    0.622451    0.126864
      8          9           0       -2.122680    1.588351    1.655414
      9          9           0       -1.352356    1.080713   -1.774689
     10          6           0        0.843461   -0.529506   -0.726716
     11          8           0        0.813247   -1.969639   -0.940299
     12          6           0       -0.293270   -2.444138   -0.191541
     13          9           0        0.159377   -2.693475    1.055475
     14          9           0       -0.731883   -3.601048   -0.716531
     15          6           0       -1.312375   -1.336011   -0.213799
     16          9           0       -1.909098   -1.254899   -1.426662
     17          9           0       -2.285942   -1.463627    0.704035
     18          6           0        2.185709   -0.208649   -0.044383
     19          9           0        3.192563   -0.712261   -0.827217
     20          6           0        2.447771    1.262153    0.213117
     21          9           0        1.580597    1.767918    1.120214
     22          9           0        2.339133    2.000068   -0.913134
     23          9           0        3.690139    1.469409    0.711320
     24          9           0        2.264337   -0.906364    1.128540
     25          9           0        0.819447   -0.003790   -1.976203
 ---------------------------------------------------------------------
                    Distance matrix (angstroms):
                    1          2          3          4          5
     1  F    0.000000
     2  C    1.363237   0.000000
     3  C    2.365023   1.515525   0.000000
     4  F    2.784805   2.335240   1.362097   0.000000
     5  C    2.904999   2.548239   1.526695   2.361284   0.000000
     6  F    4.124442   3.731640   2.381900   2.732578   1.353799
     7  F    3.491074   3.000588   2.386170   3.548925   1.350754
     8  F    2.598378   2.913087   2.384571   2.841698   1.351514
     9  F    3.548491   2.363083   1.361306   2.156919   2.363077
    10  C    2.351408   1.535288   2.566766   2.891431   3.933489
    11  O    3.132222   2.416574   3.680177   4.279062   4.873469
    12  C    2.840761   2.317321   3.685003   4.598477   4.493108
    13  F    2.660404   2.814529   4.304677   5.047695   4.955639
    14  F    4.139301   3.550971   4.768930   5.792652   5.468709
    15  C    2.333640   1.501031   2.504790   3.672227   3.083939
    16  F    3.504435   2.350712   2.725416   3.981189   3.309550
    17  F    2.640022   2.372104   3.096627   4.315324   3.007793
    18  C    2.721372   2.623521   3.557488   3.342386   4.863570
    19  F    4.038738   3.771382   4.674625   4.440780   6.080851
    20  C    3.128499   3.212601   3.589072   2.811961   4.801476
    21  F    2.528767   2.984234   3.146659   2.299125   4.013698
    22  F    3.948328   3.629617   3.554145   2.576458   4.869071
    23  F    4.179665   4.481849   4.917344   4.050078   6.048268
    24  F    2.559167   3.014504   4.226656   4.166925   5.270913
    25  F    3.470201   2.369047   2.698255   2.886691   4.198705
                    6          7          8          9         10
     6  F    0.000000
     7  F    2.171747   0.000000
     8  F    2.178637   2.177480   0.000000
     9  F    2.790238   2.785768   3.552000   0.000000
    10  C    4.947064   4.418481   4.354062   2.917647   0.000000
    11  O    6.002154   5.007344   5.293079   3.832844   1.456198
    12  C    5.756047   4.331648   4.797807   4.006569   2.290062
    13  F    6.285726   4.906618   4.888941   4.953752   2.885643
    14  F    6.693906   5.032927   5.872844   4.839790   3.451982
    15  C    4.334979   2.836623   3.564049   2.877244   2.358212
    16  F    4.303561   2.823784   4.198676   2.426143   2.931331
    17  F    4.291927   2.405689   3.200991   3.672781   3.565500
    18  C    5.805172   5.586468   4.967971   4.144191   1.539531
    19  F    6.970521   6.731496   6.301435   4.976821   2.358343
    20  C    5.477971   5.819617   4.803712   4.292465   2.582080
    21  F    4.660862   5.145012   3.746057   4.177909   3.038532
    22  F    5.282078   5.931766   5.164758   3.900587   2.944577
    23  F    6.679404   7.101033   5.890189   5.635431   3.763932
    24  F    6.364009   5.890985   5.074162   5.045561   2.367041
    25  F    4.936066   4.699179   4.937577   2.435874   1.355792
                   11         12         13         14         15
    11  O    0.000000
    12  C    1.417804   0.000000
    13  F    2.221396   1.349854   0.000000
    14  F    2.258095   1.344037   2.181293   0.000000
    15  C    2.334000   1.505661   2.370616   2.391674   0.000000
    16  F    2.856320   2.355995   3.536820   2.719290   1.354140
    17  F    3.544694   2.394619   2.759641   3.000279   1.344075
    18  C    2.405702   3.341318   3.389700   4.524654   3.679163
    19  F    2.693498   3.943921   4.082886   4.874281   4.589097
    20  C    3.800857   4.627488   4.646860   5.884316   4.590361
    21  F    4.336343   4.793067   4.682743   6.127560   4.447837
    22  F    4.252957   5.215478   5.536795   6.390797   4.995198
    23  F    4.778222   5.656727   5.469399   6.877686   5.809593
    24  F    2.741589   3.263237   2.762238   4.432036   3.844391
    25  F    2.222093   3.221561   4.106235   4.115053   3.070105
                   16         17         18         19         20
    16  F    0.000000
    17  F    2.173810   0.000000
    18  C    4.446659   4.704334   0.000000
    19  F    5.165340   5.737883   1.371207   0.000000
    20  C    5.292139   5.484425   1.515995   2.352726   0.000000
    21  F    5.272757   5.056304   2.372607   3.541498   1.353002
    22  F    5.376429   6.000311   2.378381   2.844724   1.350838
    23  F    6.583637   6.657049   2.377031   2.715578   1.354489
    24  F    4.905924   4.603888   1.367018   2.173537   2.360956
    25  F    3.051594   4.354106   2.374988   2.730161   3.007852
                   21         22         23         24         25
    21  F    0.000000
    22  F    2.182607   0.000000
    23  F    2.169440   2.178455   0.000000
    24  F    2.760318   3.552657   2.802014   0.000000
    25  F    3.647752   2.730386   4.199282   3.541437   0.000000
 Symmetry turned off by external request.
 Stoichiometry    C8F16O
 Framework group  C1[X(C8F16O)]
 Deg. of freedom    69
 Full point group                 C1      NOp   1
 Rotational constants (GHZ):      0.3164885      0.2482119      0.1792120
 Leave Link  202 at Mon Feb  3 22:25:53 2025, MaxMem=  5368709120 cpu:         0.0
 (Enter /home/k0335/k033513/app/g09/l301.exe)
 Standard basis: 6-31G(d,p) (6D, 7F)
 Ernie: Thresh=  0.10000D-02 Tol=  0.10000D-05 Strict=F.
   375 basis functions,   700 primitive gaussians,   375 cartesian basis functions
   100 alpha electrons      100 beta electrons
       nuclear repulsion energy      3161.2532584848 Hartrees.
 IExCor=20419 DFT=T Ex+Corr=CAM-B3LYP ExCW=0 ScaHFX=  1.000000
 ScaDFX=  1.000000  1.000000  1.000000  0.810000 ScalE2=  1.000000  1.000000
 IRadAn=      0 IRanWt=     -1 IRanGd=            0 ICorTp=0 IEmpDi=  4
  HFx wShort=  0.000000 wLong=  0.330000 cFull=  0.190000 cShort=  0.000000 cLong=  0.460000
  DFx wShort=  0.000000 wLong=  0.330000 cFull=  0.190000 cShort=  0.000000 cLong=  0.460000
 NAtoms=   25 NActive=   25 NUniq=   25 SFac= 1.00D+00 NAtFMM=   60 NAOKFM=F Big=F
 Integral buffers will be    131072 words long.
 Raffenetti 2 integral format.
 Two-electron integral symmetry is turned off.
 Using the following non-standard input for PCM:
 eps=2.05
 --- end of non-standard input.
 ------------------------------------------------------------------------------
 Polarizable Continuum Model (PCM)
 =================================
 Model                : PCM (using non-symmetric T matrix).
 Atomic radii         : UFF (Universal Force Field).
 Polarization charges : Total charges.
 Charge compensation  : None.
 Solution method      : On-the-fly selection.
 Cavity type          : Scaled VdW (van der Waals Surface) (Alpha=1.100).
 Cavity algorithm     : GePol (No added spheres)
                        Default sphere list used, NSphG=   25.
                        Lebedev-Laikov grids with approx.  5.0 points / Ang**2.
                        Smoothing algorithm: Karplus/York (Gamma=1.0000).
                        Polarization charges: spherical gaussians, with
                                              point-specific exponents (IZeta= 3).
                        Self-potential: point-specific (ISelfS= 7).
                        Self-field    : sphere-specific E.n sum rule (ISelfD= 2).
 1st derivatives      : Analytical E(r).r(x)/FMM algorithm (CHGder, D1EAlg=3).
                        Cavity 1st derivative terms included.
 Solvent              : Generic,
                        Eps                           =   2.050000
                        Eps(infinity)                 =   0.000000
                        RSolv                         =   0.000000 Ang.
                        Molar volume                  =   0.000000 cm**3/mol
                        Thermal expansion coefficient =   0.000000 K**-1
                        Absolute temperature          = 298.150000 K
                        Numeral density               =   0.000000 Ang**-3
                        Hydrogen bond acidity         =   0.000000
                        Hydrogen bond basicity        =   0.000000
                        Surface tension at interface  =   0.000000 (cal/mol)*Ang**-2
                        Carbon aromaticity            =   0.000000
                        Electronegative halogenicity  =   0.000000
 ------------------------------------------------------------------------------
 GePol: Number of generator spheres                  =      25
 GePol: Total number of spheres                      =      25
 GePol: Number of exposed spheres                    =      23 ( 92.00%)
 GePol: Number of points                             =    2210
 GePol: Average weight of points                     =       0.13
 GePol: Minimum weight of points                     =   0.30D-09
 GePol: Maximum weight of points                     =    0.20551
 GePol: Number of points with low weight             =      75
 GePol: Fraction of low-weight points (<1% of avg)   =       3.39%
 GePol: Cavity surface area                          =    277.492 Ang**2
 GePol: Cavity volume                                =    316.208 Ang**3
 Leave Link  301 at Mon Feb  3 22:25:53 2025, MaxMem=  5368709120 cpu:         0.6
 (Enter /home/k0335/k033513/app/g09/l302.exe)
 NPDir=0 NMtPBC=     1 NCelOv=     1 NCel=       1 NClECP=     1 NCelD=      1
         NCelK=      1 NCelE2=     1 NClLst=     1 CellRange=     0.0.
 One-electron integrals computed using PRISM.
 NBasis=   375 RedAO= T EigKep=  8.35D-04  NBF=   375
 NBsUse=   375 1.00D-06 EigRej= -1.00D+00 NBFU=   375
 Precomputing XC quadrature grid using
 IXCGrd= 4 IRadAn=           0 IRanWt=          -1 IRanGd=           0 AccXCQ= 0.00D+00.
 Generated NRdTot=       0 NPtTot=           0 NUsed=           0 NTot=          32
 NSgBfM=   372   372   372   372   372 MxSgAt=    25 MxSgA2=    25.
 Leave Link  302 at Mon Feb  3 22:25:53 2025, MaxMem=  5368709120 cpu:         7.3
 (Enter /home/k0335/k033513/app/g09/l303.exe)
 DipDrv:  MaxL=1.
 Leave Link  303 at Mon Feb  3 22:25:53 2025, MaxMem=  5368709120 cpu:         0.4
 (Enter /home/k0335/k033513/app/g09/l401.exe)
 ExpMin= 1.69D-01 ExpMax= 7.00D+03 ExpMxC= 1.05D+03 IAcc=1 IRadAn=         1 AccDes= 0.00D+00
 Harris functional with IExCor=20419 and IRadAn=       1 diagonalized for initial guess.
 HarFok:  IExCor=20419 AccDes= 0.00D+00 IRadAn=         1 IDoV= 1 UseB2=F ITyADJ=14
 ICtDFT=  3500011 ScaDFX=  1.000000  1.000000  1.000000  1.000000
 FoFCou: FMM=F IPFlag=           0 FMFlag=      100000 FMFlg1=           0
         NFxFlg=           0 DoJE=T BraDBF=F KetDBF=T FulRan=T
         wScrn=  0.000000 ICntrl=     500 IOpCl=  0 I1Cent=   200000004 NGrid=           0
         NMat0=    1 NMatS0=      1 NMatT0=    0 NMatD0=    1 NMtDS0=    0 NMtDT0=    0
 Symmetry not used in FoFCou.
 Harris En= -1919.91408117744    
 JPrj=0 DoOrth=F DoCkMO=F.
 Leave Link  401 at Mon Feb  3 22:25:54 2025, MaxMem=  5368709120 cpu:         5.7
 (Enter /home/k0335/k033513/app/g09/l502.exe)
 Closed shell SCF:
 Using DIIS extrapolation, IDIIS=  1040.
 Two-electron integral symmetry not used.
 Keep R1 ints in memory in canonical form, NReq=4997350725.
 IVT=      451725 IEndB=      451725 NGot=  5368709120 MDV=   397936896
 LenX=   397936896 LenY=   397795830
 Requested convergence on RMS density matrix=1.00D-08 within 128 cycles.
 Requested convergence on MAX density matrix=1.00D-06.
 Requested convergence on             energy=1.00D-06.
 No special actions if energy rises.
 FoFCou: FMM=F IPFlag=           0 FMFlag=           0 FMFlg1=           0
         NFxFlg=           0 DoJE=F BraDBF=F KetDBF=F FulRan=T
         wScrn=  0.000000 ICntrl=     600 IOpCl=  0 I1Cent=           0 NGrid=           0
         NMat0=    1 NMatS0=  70500 NMatT0=    0 NMatD0=    1 NMtDS0=    0 NMtDT0=    0
 Symmetry not used in FoFCou.

 Cycle   1  Pass 1  IDiag  1:
 Inv3:  Mode=1 IEnd=    14652300.
 Iteration    1 A*A^-1 deviation from unit magnitude is 5.77D-15 for   2203.
 Iteration    1 A*A^-1 deviation from orthogonality  is 3.15D-15 for   2110    139.
 Iteration    1 A^-1*A deviation from unit magnitude is 6.88D-15 for    625.
 Iteration    1 A^-1*A deviation from orthogonality  is 1.31D-15 for   2079   1536.
 E= -1976.34529965507    
 DIIS: error= 4.07D-02 at cycle   1 NSaved=   1.
 NSaved= 1 IEnMin= 1 EnMin= -1976.34529965507     IErMin= 1 ErrMin= 4.07D-02
 ErrMax= 4.07D-02  0.00D+00 EMaxC= 1.00D-01 BMatC= 1.65D+00 BMatP= 1.65D+00
 IDIUse=3 WtCom= 5.93D-01 WtEn= 4.07D-01
 Coeff-Com:  0.100D+01
 Coeff-En:   0.100D+01
 Coeff:      0.100D+01
 Gap=     0.457 Goal=   None    Shift=    0.000
 GapD=    0.457 DampG=2.000 DampE=0.500 DampFc=1.0000 IDamp=-1.
 RMSDP=3.94D-03 MaxDP=1.89D-01              OVMax= 8.60D-02

 Cycle   2  Pass 1  IDiag  1:
 E= -1976.61777029087     Delta-E=       -0.272470635804 Rises=F Damp=F
 DIIS: error= 2.65D-02 at cycle   2 NSaved=   2.
 NSaved= 2 IEnMin= 2 EnMin= -1976.61777029087     IErMin= 2 ErrMin= 2.65D-02
 ErrMax= 2.65D-02  0.00D+00 EMaxC= 1.00D-01 BMatC= 6.39D-01 BMatP= 1.65D+00
 IDIUse=3 WtCom= 7.35D-01 WtEn= 2.65D-01
 Coeff-Com:  0.367D+00 0.633D+00
 Coeff-En:   0.318D+00 0.682D+00
 Coeff:      0.354D+00 0.646D+00
 Gap=     0.463 Goal=   None    Shift=    0.000
 RMSDP=1.73D-03 MaxDP=9.41D-02 DE=-2.72D-01 OVMax= 5.27D-02

 Cycle   3  Pass 1  IDiag  1:
 E= -1976.90263789712     Delta-E=       -0.284867606244 Rises=F Damp=F
 DIIS: error= 9.61D-03 at cycle   3 NSaved=   3.
 NSaved= 3 IEnMin= 3 EnMin= -1976.90263789712     IErMin= 3 ErrMin= 9.61D-03
 ErrMax= 9.61D-03  0.00D+00 EMaxC= 1.00D-01 BMatC= 1.03D-01 BMatP= 6.39D-01
 IDIUse=3 WtCom= 9.04D-01 WtEn= 9.61D-02
 Coeff-Com:  0.902D-01 0.318D+00 0.592D+00
 Coeff-En:   0.000D+00 0.897D-01 0.910D+00
 Coeff:      0.815D-01 0.296D+00 0.622D+00
 Gap=     0.460 Goal=   None    Shift=    0.000
 RMSDP=7.99D-04 MaxDP=4.40D-02 DE=-2.85D-01 OVMax= 2.78D-02

 Cycle   4  Pass 1  IDiag  1:
 E= -1976.96194512402     Delta-E=       -0.059307226902 Rises=F Damp=F
 DIIS: error= 2.73D-03 at cycle   4 NSaved=   4.
 NSaved= 4 IEnMin= 4 EnMin= -1976.96194512402     IErMin= 4 ErrMin= 2.73D-03
 ErrMax= 2.73D-03  0.00D+00 EMaxC= 1.00D-01 BMatC= 7.23D-03 BMatP= 1.03D-01
 IDIUse=3 WtCom= 9.73D-01 WtEn= 2.73D-02
 Coeff-Com:  0.819D-03 0.552D-01 0.273D+00 0.671D+00
 Coeff-En:   0.000D+00 0.000D+00 0.697D-03 0.999D+00
 Coeff:      0.797D-03 0.537D-01 0.266D+00 0.680D+00
 Gap=     0.449 Goal=   None    Shift=    0.000
 RMSDP=1.95D-04 MaxDP=8.50D-03 DE=-5.93D-02 OVMax= 7.36D-03

 Cycle   5  Pass 1  IDiag  1:
 E= -1976.96712081940     Delta-E=       -0.005175695384 Rises=F Damp=F
 DIIS: error= 1.54D-04 at cycle   5 NSaved=   5.
 NSaved= 5 IEnMin= 5 EnMin= -1976.96712081940     IErMin= 5 ErrMin= 1.54D-04
 ErrMax= 1.54D-04  0.00D+00 EMaxC= 1.00D-01 BMatC= 6.45D-05 BMatP= 7.23D-03
 IDIUse=3 WtCom= 9.98D-01 WtEn= 1.54D-03
 Coeff-Com: -0.588D-03 0.178D-01 0.973D-01 0.268D+00 0.618D+00
 Coeff-En:   0.000D+00 0.000D+00 0.000D+00 0.000D+00 0.100D+01
 Coeff:     -0.587D-03 0.178D-01 0.972D-01 0.267D+00 0.618D+00
 Gap=     0.449 Goal=   None    Shift=    0.000
 RMSDP=2.24D-05 MaxDP=9.77D-04 DE=-5.18D-03 OVMax= 8.68D-04

 Cycle   6  Pass 1  IDiag  1:
 E= -1976.96715913190     Delta-E=       -0.000038312497 Rises=F Damp=F
 DIIS: error= 6.10D-05 at cycle   6 NSaved=   6.
 NSaved= 6 IEnMin= 6 EnMin= -1976.96715913190     IErMin= 6 ErrMin= 6.10D-05
 ErrMax= 6.10D-05  0.00D+00 EMaxC= 1.00D-01 BMatC= 9.61D-06 BMatP= 6.45D-05
 IDIUse=1 WtCom= 1.00D+00 WtEn= 0.00D+00
 Coeff-Com: -0.339D-03-0.323D-02-0.114D-01-0.176D-01 0.277D+00 0.756D+00
 Coeff:     -0.339D-03-0.323D-02-0.114D-01-0.176D-01 0.277D+00 0.756D+00
 Gap=     0.449 Goal=   None    Shift=    0.000
 RMSDP=6.88D-06 MaxDP=4.36D-04 DE=-3.83D-05 OVMax= 3.04D-04

 Cycle   7  Pass 1  IDiag  1:
 E= -1976.96716597050     Delta-E=       -0.000006838596 Rises=F Damp=F
 DIIS: error= 8.20D-06 at cycle   7 NSaved=   7.
 NSaved= 7 IEnMin= 7 EnMin= -1976.96716597050     IErMin= 7 ErrMin= 8.20D-06
 ErrMax= 8.20D-06  0.00D+00 EMaxC= 1.00D-01 BMatC= 2.10D-07 BMatP= 9.61D-06
 IDIUse=1 WtCom= 1.00D+00 WtEn= 0.00D+00
 Coeff-Com: -0.709D-04-0.176D-02-0.756D-02-0.168D-01 0.604D-01 0.227D+00
 Coeff-Com:  0.739D+00
 Coeff:     -0.709D-04-0.176D-02-0.756D-02-0.168D-01 0.604D-01 0.227D+00
 Coeff:      0.739D+00
 Gap=     0.449 Goal=   None    Shift=    0.000
 RMSDP=1.53D-06 MaxDP=9.08D-05 DE=-6.84D-06 OVMax= 9.64D-05

 Cycle   8  Pass 1  IDiag  1:
 E= -1976.96716613732     Delta-E=       -0.000000166821 Rises=F Damp=F
 DIIS: error= 5.08D-06 at cycle   8 NSaved=   8.
 NSaved= 8 IEnMin= 8 EnMin= -1976.96716613732     IErMin= 8 ErrMin= 5.08D-06
 ErrMax= 5.08D-06  0.00D+00 EMaxC= 1.00D-01 BMatC= 4.44D-08 BMatP= 2.10D-07
 IDIUse=1 WtCom= 1.00D+00 WtEn= 0.00D+00
 Coeff-Com:  0.103D-05-0.551D-03-0.260D-02-0.670D-02-0.628D-03 0.283D-01
 Coeff-Com:  0.336D+00 0.646D+00
 Coeff:      0.103D-05-0.551D-03-0.260D-02-0.670D-02-0.628D-03 0.283D-01
 Coeff:      0.336D+00 0.646D+00
 Gap=     0.449 Goal=   None    Shift=    0.000
 RMSDP=5.80D-07 MaxDP=3.88D-05 DE=-1.67D-07 OVMax= 3.31D-05

 Cycle   9  Pass 1  IDiag  1:
 E= -1976.96716617077     Delta-E=       -0.000000033457 Rises=F Damp=F
 DIIS: error= 1.58D-06 at cycle   9 NSaved=   9.
 NSaved= 9 IEnMin= 9 EnMin= -1976.96716617077     IErMin= 9 ErrMin= 1.58D-06
 ErrMax= 1.58D-06  0.00D+00 EMaxC= 1.00D-01 BMatC= 3.61D-09 BMatP= 4.44D-08
 IDIUse=1 WtCom= 1.00D+00 WtEn= 0.00D+00
 Coeff-Com:  0.939D-05 0.225D-04 0.701D-06-0.347D-03-0.801D-02-0.188D-01
 Coeff-Com:  0.258D-01 0.245D+00 0.757D+00
 Coeff:      0.939D-05 0.225D-04 0.701D-06-0.347D-03-0.801D-02-0.188D-01
 Coeff:      0.258D-01 0.245D+00 0.757D+00
 Gap=     0.449 Goal=   None    Shift=    0.000
 RMSDP=2.01D-07 MaxDP=1.09D-05 DE=-3.35D-08 OVMax= 1.40D-05

 Cycle  10  Pass 1  IDiag  1:
 E= -1976.96716617401     Delta-E=       -0.000000003235 Rises=F Damp=F
 DIIS: error= 3.99D-07 at cycle  10 NSaved=  10.
 NSaved=10 IEnMin=10 EnMin= -1976.96716617401     IErMin=10 ErrMin= 3.99D-07
 ErrMax= 3.99D-07  0.00D+00 EMaxC= 1.00D-01 BMatC= 3.06D-10 BMatP= 3.61D-09
 IDIUse=1 WtCom= 1.00D+00 WtEn= 0.00D+00
 Coeff-Com:  0.347D-05 0.567D-04 0.223D-03 0.452D-03-0.307D-02-0.982D-02
 Coeff-Com: -0.186D-01 0.433D-01 0.293D+00 0.695D+00
 Coeff:      0.347D-05 0.567D-04 0.223D-03 0.452D-03-0.307D-02-0.982D-02
 Coeff:     -0.186D-01 0.433D-01 0.293D+00 0.695D+00
 Gap=     0.449 Goal=   None    Shift=    0.000
 RMSDP=5.18D-08 MaxDP=2.50D-06 DE=-3.24D-09 OVMax= 3.31D-06

 Cycle  11  Pass 1  IDiag  1:
 E= -1976.96716617410     Delta-E=       -0.000000000090 Rises=F Damp=F
 DIIS: error= 1.03D-07 at cycle  11 NSaved=  11.
 NSaved=11 IEnMin=11 EnMin= -1976.96716617410     IErMin=11 ErrMin= 1.03D-07
 ErrMax= 1.03D-07  0.00D+00 EMaxC= 1.00D-01 BMatC= 1.78D-11 BMatP= 3.06D-10
 IDIUse=1 WtCom= 1.00D+00 WtEn= 0.00D+00
 Coeff-Com:  0.422D-06 0.168D-04 0.706D-04 0.177D-03-0.376D-03-0.168D-02
 Coeff-Com: -0.706D-02-0.197D-02 0.374D-01 0.211D+00 0.762D+00
 Coeff:      0.422D-06 0.168D-04 0.706D-04 0.177D-03-0.376D-03-0.168D-02
 Coeff:     -0.706D-02-0.197D-02 0.374D-01 0.211D+00 0.762D+00
 Gap=     0.449 Goal=   None    Shift=    0.000
 RMSDP=1.38D-08 MaxDP=5.38D-07 DE=-9.00D-11 OVMax= 9.68D-07

 Cycle  12  Pass 1  IDiag  1:
 E= -1976.96716617424     Delta-E=       -0.000000000139 Rises=F Damp=F
 DIIS: error= 4.05D-08 at cycle  12 NSaved=  12.
 NSaved=12 IEnMin=12 EnMin= -1976.96716617424     IErMin=12 ErrMin= 4.05D-08
 ErrMax= 4.05D-08  0.00D+00 EMaxC= 1.00D-01 BMatC= 3.87D-12 BMatP= 1.78D-11
 IDIUse=1 WtCom= 1.00D+00 WtEn= 0.00D+00
 Coeff-Com: -0.216D-06 0.126D-05 0.685D-05 0.324D-04 0.199D-03 0.395D-03
 Coeff-Com: -0.113D-02-0.610D-02-0.177D-01 0.140D-01 0.363D+00 0.648D+00
 Coeff:     -0.216D-06 0.126D-05 0.685D-05 0.324D-04 0.199D-03 0.395D-03
 Coeff:     -0.113D-02-0.610D-02-0.177D-01 0.140D-01 0.363D+00 0.648D+00
 Gap=     0.449 Goal=   None    Shift=    0.000
 RMSDP=5.04D-09 MaxDP=1.95D-07 DE=-1.39D-10 OVMax= 3.03D-07

 Error on total polarization charges =  0.00046
 SCF Done:  E(RCAM-B3LYP) =  -1976.96716617     A.U. after   12 cycles
            NFock= 12  Conv=0.50D-08     -V/T= 2.0068
 KE= 1.963685339478D+03 PE=-1.100916173059D+04 EE= 3.907255966455D+03
 Leave Link  502 at Mon Feb  3 22:26:29 2025, MaxMem=  5368709120 cpu:       326.5
 (Enter /home/k0335/k033513/app/g09/l601.exe)
 Copying SCF densities to generalized density rwf, IOpCl= 0 IROHF=0.

 **********************************************************************

            Population analysis using the SCF density.

 **********************************************************************

 Alpha  occ. eigenvalues --  -24.84239 -24.84149 -24.83994 -24.83935 -24.83764
 Alpha  occ. eigenvalues --  -24.83713 -24.83618 -24.83586 -24.83519 -24.83476
 Alpha  occ. eigenvalues --  -24.83466 -24.83321 -24.83220 -24.83129 -24.83092
 Alpha  occ. eigenvalues --  -24.83053 -19.32264 -10.55729 -10.55343 -10.53190
 Alpha  occ. eigenvalues --  -10.50404 -10.49925 -10.49617 -10.48675 -10.44153
 Alpha  occ. eigenvalues --   -1.42750  -1.42188  -1.41179  -1.39239  -1.38834
 Alpha  occ. eigenvalues --   -1.38257  -1.36647  -1.36314  -1.33624  -1.33445
 Alpha  occ. eigenvalues --   -1.33090  -1.32866  -1.32768  -1.32594  -1.32049
 Alpha  occ. eigenvalues --   -1.31536  -1.20553  -0.98421  -0.93228  -0.90837
 Alpha  occ. eigenvalues --   -0.86975  -0.81957  -0.78517  -0.76977  -0.75858
 Alpha  occ. eigenvalues --   -0.72814  -0.72656  -0.71129  -0.70736  -0.70457
 Alpha  occ. eigenvalues --   -0.69573  -0.69447  -0.69368  -0.68654  -0.67856
 Alpha  occ. eigenvalues --   -0.67039  -0.65965  -0.65670  -0.65270  -0.64643
 Alpha  occ. eigenvalues --   -0.63084  -0.59010  -0.58393  -0.57584  -0.57283
 Alpha  occ. eigenvalues --   -0.56944  -0.56734  -0.56568  -0.55926  -0.55890
 Alpha  occ. eigenvalues --   -0.55600  -0.54805  -0.54491  -0.54274  -0.54040
 Alpha  occ. eigenvalues --   -0.53894  -0.53656  -0.52941  -0.52688  -0.52325
 Alpha  occ. eigenvalues --   -0.51718  -0.51457  -0.51348  -0.51241  -0.50949
 Alpha  occ. eigenvalues --   -0.50714  -0.50253  -0.50136  -0.49720  -0.49034
 Alpha  occ. eigenvalues --   -0.48660  -0.46074  -0.45336  -0.44116  -0.42685
 Alpha virt. eigenvalues --    0.02233   0.05714   0.07136   0.09590   0.11254
 Alpha virt. eigenvalues --    0.12937   0.14841   0.17143   0.19166   0.22754
 Alpha virt. eigenvalues --    0.23899   0.24218   0.24484   0.25123   0.26504
 Alpha virt. eigenvalues --    0.27181   0.27497   0.28040   0.28594   0.30658
 Alpha virt. eigenvalues --    0.31420   0.33079   0.34151   0.36444   0.37139
 Alpha virt. eigenvalues --    0.44850   0.47981   0.49048   0.50324   0.51153
 Alpha virt. eigenvalues --    0.52191   0.52939   0.54372   0.54898   0.56947
 Alpha virt. eigenvalues --    0.57470   0.58884   0.60636   0.62865   0.63169
 Alpha virt. eigenvalues --    0.64238   0.66854   0.68410   0.68728   0.71302
 Alpha virt. eigenvalues --    0.73502   0.75607   0.77486   0.80541   0.86863
 Alpha virt. eigenvalues --    0.91648   0.92101   0.92930   0.96822   0.98829
 Alpha virt. eigenvalues --    1.01050   1.03031   1.04227   1.06168   1.08693
 Alpha virt. eigenvalues --    1.09412   1.09983   1.10633   1.11189   1.12561
 Alpha virt. eigenvalues --    1.12996   1.13524   1.14322   1.16306   1.18133
 Alpha virt. eigenvalues --    1.19180   1.19827   1.21470   1.22414   1.24588
 Alpha virt. eigenvalues --    1.25862   1.27419   1.27571   1.28332   1.29386
 Alpha virt. eigenvalues --    1.30022   1.30861   1.31838   1.33139   1.34154
 Alpha virt. eigenvalues --    1.35127   1.35729   1.36204   1.36714   1.36864
 Alpha virt. eigenvalues --    1.37945   1.38339   1.38933   1.39584   1.40457
 Alpha virt. eigenvalues --    1.40802   1.41040   1.41243   1.41761   1.42539
 Alpha virt. eigenvalues --    1.43026   1.44090   1.44734   1.45950   1.46500
 Alpha virt. eigenvalues --    1.47633   1.49308   1.50369   1.51029   1.52679
 Alpha virt. eigenvalues --    1.53840   1.54802   1.55191   1.57228   1.57510
 Alpha virt. eigenvalues --    1.57977   1.59887   1.61115   1.62588   1.64654
 Alpha virt. eigenvalues --    1.65851   1.67357   1.68873   1.70482   1.70725
 Alpha virt. eigenvalues --    1.72138   1.72811   1.73172   1.73729   1.74315
 Alpha virt. eigenvalues --    1.75633   1.77194   1.78306   1.79073   1.80433
 Alpha virt. eigenvalues --    1.81314   1.82610   1.82682   1.83698   1.84844
 Alpha virt. eigenvalues --    1.85073   1.86360   1.86408   1.87774   1.88360
 Alpha virt. eigenvalues --    1.89576   1.90157   1.90604   1.91540   1.92826
 Alpha virt. eigenvalues --    1.93198   1.95159   1.95900   1.96767   1.97199
 Alpha virt. eigenvalues --    1.98431   1.98582   1.99466   2.00697   2.01464
 Alpha virt. eigenvalues --    2.02860   2.02983   2.04241   2.04288   2.04435
 Alpha virt. eigenvalues --    2.05712   2.06226   2.06466   2.07081   2.07349
 Alpha virt. eigenvalues --    2.09248   2.09943   2.10092   2.10317   2.10712
 Alpha virt. eigenvalues --    2.11030   2.12038   2.13677   2.14903   2.15881
 Alpha virt. eigenvalues --    2.17652   2.17945   2.20920   2.21970   2.22962
 Alpha virt. eigenvalues --    2.25134   2.26900   2.28077   2.28817   2.29841
 Alpha virt. eigenvalues --    2.31711   2.33479   2.33929   2.34763   2.37387
 Alpha virt. eigenvalues --    2.38875   2.39941   2.40608   2.41602   2.42514
 Alpha virt. eigenvalues --    2.43413   2.44676   2.45314   2.46927   2.48874
 Alpha virt. eigenvalues --    2.51035   2.52645   2.55682   2.58291   2.59803
 Alpha virt. eigenvalues --    2.63027   2.64658   2.69422   2.70299   2.72811
 Alpha virt. eigenvalues --    2.74539   2.78383   2.80871   2.81634   2.83379
 Alpha virt. eigenvalues --    2.85470   2.87236   2.87976   2.88971   2.89662
 Alpha virt. eigenvalues --    2.91009   2.92875   2.93468   2.95156   2.96179
 Alpha virt. eigenvalues --    2.99438   3.00739   3.02829   3.06847   3.07890
 Alpha virt. eigenvalues --    3.08244   3.08828   3.11553   3.11759   3.13027
 Alpha virt. eigenvalues --    3.14902   3.16234   3.19749   3.21641   3.23176
 Alpha virt. eigenvalues --    3.25333   3.27922   3.32926   3.38844   3.39708
 Alpha virt. eigenvalues --    4.22632   4.27129   4.30910   4.37108   4.40759
 Alpha virt. eigenvalues --    4.53641   4.62814   4.66580   4.68627   4.74550
 Alpha virt. eigenvalues --    4.87914   4.96772   5.05242   5.11142   5.19756
 Alpha virt. eigenvalues --    5.23961   5.26883   5.35339   5.63507   5.68951
 Alpha virt. eigenvalues --    5.84882   6.33463   6.39160   6.59687   6.86200
          Condensed to atoms (all electrons):
               1          2          3          4          5          6
     1  F    9.146675   0.192959  -0.020196  -0.000374   0.001989   0.000000
     2  C    0.192959   5.751418   0.107998  -0.038358  -0.048092   0.002494
     3  C   -0.020196   0.107998   4.789716   0.242007   0.238482  -0.022291
     4  F   -0.000374  -0.038358   0.242007   9.113108  -0.016024  -0.000558
     5  C    0.001989  -0.048092   0.238482  -0.016024   4.185941   0.300368
     6  F    0.000000   0.002494  -0.022291  -0.000558   0.300368   9.045085
     7  F   -0.000076  -0.004476  -0.034139   0.000294   0.274932  -0.039812
     8  F    0.000030   0.006563  -0.036240  -0.000353   0.283534  -0.039264
     9  F    0.000294  -0.033680   0.232884  -0.039631  -0.013620  -0.000737
    10  C   -0.028647   0.097286  -0.026690   0.007340   0.003740  -0.000026
    11  O    0.000127  -0.027867   0.002892   0.000007  -0.000030   0.000000
    12  C    0.005401  -0.055026   0.002478  -0.000066   0.000158   0.000000
    13  F   -0.000086   0.006242   0.000155   0.000000  -0.000010   0.000000
    14  F    0.000000   0.002336  -0.000021   0.000000   0.000000   0.000000
    15  C   -0.020321   0.079505  -0.028771   0.002079  -0.009425   0.000014
    16  F    0.000351  -0.053212   0.008438   0.000001  -0.001874   0.000001
    17  F   -0.000514  -0.028963  -0.007109  -0.000001   0.010881   0.000000
    18  C    0.010124  -0.043484  -0.002851  -0.004717  -0.000078   0.000000
    19  F    0.000004   0.002135   0.000018   0.000001   0.000000   0.000000
    20  C   -0.002274  -0.003596   0.001240   0.011972   0.000013   0.000000
    21  F   -0.001088   0.012955  -0.000827  -0.007820  -0.000104   0.000000
    22  F    0.000006  -0.002488   0.001743  -0.001059   0.000001   0.000000
    23  F    0.000001  -0.000015   0.000005  -0.000003   0.000000   0.000000
    24  F   -0.000992   0.001354   0.000157   0.000002   0.000003   0.000000
    25  F    0.000389  -0.045166   0.018102  -0.001368   0.000197   0.000000
               7          8          9         10         11         12
     1  F   -0.000076   0.000030   0.000294  -0.028647   0.000127   0.005401
     2  C   -0.004476   0.006563  -0.033680   0.097286  -0.027867  -0.055026
     3  C   -0.034139  -0.036240   0.232884  -0.026690   0.002892   0.002478
     4  F    0.000294  -0.000353  -0.039631   0.007340   0.000007  -0.000066
     5  C    0.274932   0.283534  -0.013620   0.003740  -0.000030   0.000158
     6  F   -0.039812  -0.039264  -0.000737  -0.000026   0.000000   0.000000
     7  F    9.067962  -0.038213  -0.000337   0.000071   0.000000   0.000204
     8  F   -0.038213   9.066630   0.000299   0.000040   0.000000   0.000010
     9  F   -0.000337   0.000299   9.118786  -0.000355  -0.000052  -0.000150
    10  C    0.000071   0.000040  -0.000355   5.011790   0.181106  -0.037463
    11  O    0.000000   0.000000  -0.000052   0.181106   8.376875   0.189668
    12  C    0.000204   0.000010  -0.000150  -0.037463   0.189668   4.337319
    13  F    0.000000   0.000000   0.000000   0.000952  -0.053539   0.269024
    14  F    0.000000   0.000000   0.000000   0.001607  -0.039477   0.324829
    15  C    0.020006  -0.001522   0.002594  -0.033280  -0.047472   0.236480
    16  F   -0.000619   0.000002  -0.002812   0.015345  -0.002707  -0.017359
    17  F   -0.007078  -0.000255   0.000000   0.002424   0.000788  -0.019608
    18  C    0.000000   0.000005   0.000147   0.154967  -0.030024  -0.003435
    19  F    0.000000   0.000000   0.000000  -0.021402  -0.000780   0.000237
    20  C    0.000000  -0.000004  -0.000049  -0.049769   0.001774   0.000264
    21  F    0.000000   0.000001   0.000001  -0.004009   0.000002  -0.000014
    22  F    0.000000   0.000000  -0.000008   0.006836   0.000008  -0.000001
    23  F    0.000000   0.000000   0.000000   0.002081  -0.000003  -0.000001
    24  F    0.000000   0.000000   0.000000  -0.029437  -0.000857   0.002385
    25  F    0.000000   0.000000  -0.003567   0.258747  -0.046465   0.000012
              13         14         15         16         17         18
     1  F   -0.000086   0.000000  -0.020321   0.000351  -0.000514   0.010124
     2  C    0.006242   0.002336   0.079505  -0.053212  -0.028963  -0.043484
     3  C    0.000155  -0.000021  -0.028771   0.008438  -0.007109  -0.002851
     4  F    0.000000   0.000000   0.002079   0.000001  -0.000001  -0.004717
     5  C   -0.000010   0.000000  -0.009425  -0.001874   0.010881  -0.000078
     6  F    0.000000   0.000000   0.000014   0.000001   0.000000   0.000000
     7  F    0.000000   0.000000   0.020006  -0.000619  -0.007078   0.000000
     8  F    0.000000   0.000000  -0.001522   0.000002  -0.000255   0.000005
     9  F    0.000000   0.000000   0.002594  -0.002812   0.000000   0.000147
    10  C    0.000952   0.001607  -0.033280   0.015345   0.002424   0.154967
    11  O   -0.053539  -0.039477  -0.047472  -0.002707   0.000788  -0.030024
    12  C    0.269024   0.324829   0.236480  -0.017359  -0.019608  -0.003435
    13  F    9.098727  -0.040061  -0.035111   0.000310   0.000021   0.000483
    14  F   -0.040061   9.020622  -0.026707  -0.000541  -0.000196  -0.000055
    15  C   -0.035111  -0.026707   4.799457   0.243782   0.263678   0.002738
    16  F    0.000310  -0.000541   0.243782   9.105825  -0.038718   0.000081
    17  F    0.000021  -0.000196   0.263678  -0.038718   9.079016  -0.000005
    18  C    0.000483  -0.000055   0.002738   0.000081  -0.000005   4.787636
    19  F   -0.000002   0.000000  -0.000082   0.000000   0.000000   0.248356
    20  C    0.000000   0.000000  -0.000086  -0.000001   0.000000   0.219616
    21  F    0.000000   0.000000   0.000133   0.000000   0.000000  -0.032744
    22  F    0.000000   0.000000  -0.000002   0.000000   0.000000  -0.034776
    23  F    0.000000   0.000000   0.000000   0.000000   0.000000  -0.020596
    24  F    0.000685   0.000000  -0.000849   0.000000   0.000000   0.241062
    25  F   -0.000008  -0.000002   0.003318  -0.000406  -0.000001  -0.028019
              19         20         21         22         23         24
     1  F    0.000004  -0.002274  -0.001088   0.000006   0.000001  -0.000992
     2  C    0.002135  -0.003596   0.012955  -0.002488  -0.000015   0.001354
     3  C    0.000018   0.001240  -0.000827   0.001743   0.000005   0.000157
     4  F    0.000001   0.011972  -0.007820  -0.001059  -0.000003   0.000002
     5  C    0.000000   0.000013  -0.000104   0.000001   0.000000   0.000003
     6  F    0.000000   0.000000   0.000000   0.000000   0.000000   0.000000
     7  F    0.000000   0.000000   0.000000   0.000000   0.000000   0.000000
     8  F    0.000000  -0.000004   0.000001   0.000000   0.000000   0.000000
     9  F    0.000000  -0.000049   0.000001  -0.000008   0.000000   0.000000
    10  C   -0.021402  -0.049769  -0.004009   0.006836   0.002081  -0.029437
    11  O   -0.000780   0.001774   0.000002   0.000008  -0.000003  -0.000857
    12  C    0.000237   0.000264  -0.000014  -0.000001  -0.000001   0.002385
    13  F   -0.000002   0.000000   0.000000   0.000000   0.000000   0.000685
    14  F    0.000000   0.000000   0.000000   0.000000   0.000000   0.000000
    15  C   -0.000082  -0.000086   0.000133  -0.000002   0.000000  -0.000849
    16  F    0.000000  -0.000001   0.000000   0.000000   0.000000   0.000000
    17  F    0.000000   0.000000   0.000000   0.000000   0.000000   0.000000
    18  C    0.248356   0.219616  -0.032744  -0.034776  -0.020596   0.241062
    19  F    9.094266  -0.017568   0.000313  -0.000325  -0.000515  -0.038322
    20  C   -0.017568   4.228538   0.267818   0.274788   0.297073  -0.016453
    21  F    0.000313   0.267818   9.088707  -0.036629  -0.039541  -0.000164
    22  F   -0.000325   0.274788  -0.036629   9.075731  -0.038522   0.000307
    23  F   -0.000515   0.297073  -0.039541  -0.038522   9.048325  -0.000706
    24  F   -0.038322  -0.016453  -0.000164   0.000307  -0.000706   9.104676
    25  F   -0.000599   0.000540  -0.000017   0.000337  -0.000001   0.000294
              25
     1  F    0.000389
     2  C   -0.045166
     3  C    0.018102
     4  F   -0.001368
     5  C    0.000197
     6  F    0.000000
     7  F    0.000000
     8  F    0.000000
     9  F   -0.003567
    10  C    0.258747
    11  O   -0.046465
    12  C    0.000012
    13  F   -0.000008
    14  F   -0.000002
    15  C    0.003318
    16  F   -0.000406
    17  F   -0.000001
    18  C   -0.028019
    19  F   -0.000599
    20  C    0.000540
    21  F   -0.000017
    22  F    0.000337
    23  F   -0.000001
    24  F    0.000294
    25  F    9.100440
 Mulliken charges:
               1
     1  F   -0.283781
     2  C    0.121178
     3  C    0.532820
     4  F   -0.266478
     5  C    0.789018
     6  F   -0.245274
     7  F   -0.238718
     8  F   -0.241263
     9  F   -0.260007
    10  C    0.486746
    11  O   -0.503971
    12  C    0.764653
    13  F   -0.247783
    14  F   -0.242334
    15  C    0.549845
    16  F   -0.255888
    17  F   -0.254358
    18  C    0.535570
    19  F   -0.265734
    20  C    0.786165
    21  F   -0.246973
    22  F   -0.245947
    23  F   -0.247584
    24  F   -0.263144
    25  F   -0.256758
 Sum of Mulliken charges =   0.00000
 Mulliken charges with hydrogens summed into heavy atoms:
               1
     1  F   -0.283781
     2  C    0.121178
     3  C    0.532820
     4  F   -0.266478
     5  C    0.789018
     6  F   -0.245274
     7  F   -0.238718
     8  F   -0.241263
     9  F   -0.260007
    10  C    0.486746
    11  O   -0.503971
    12  C    0.764653
    13  F   -0.247783
    14  F   -0.242334
    15  C    0.549845
    16  F   -0.255888
    17  F   -0.254358
    18  C    0.535570
    19  F   -0.265734
    20  C    0.786165
    21  F   -0.246973
    22  F   -0.245947
    23  F   -0.247584
    24  F   -0.263144
    25  F   -0.256758
 Electronic spatial extent (au):  <R**2>=           5802.1150
 Charge=              0.0000 electrons
 Dipole moment (field-independent basis, Debye):
    X=             -0.6428    Y=              0.1292    Z=              0.1306  Tot=              0.6685
 Quadrupole moment (field-independent basis, Debye-Ang):
   XX=           -131.1037   YY=           -131.0708   ZZ=           -131.3369
   XY=              1.2450   XZ=              0.0777   YZ=             -0.2307
 Traceless Quadrupole moment (field-independent basis, Debye-Ang):
   XX=              0.0667   YY=              0.0997   ZZ=             -0.1664
   XY=              1.2450   XZ=              0.0777   YZ=             -0.2307
 Octapole moment (field-independent basis, Debye-Ang**2):
  XXX=             -5.0938  YYY=              6.1292  ZZZ=             37.5502  XYY=             -3.9660
  XXY=              1.5784  XXZ=             11.9355  XZZ=             -1.1173  YZZ=              2.7218
  YYZ=             13.7303  XYZ=             -0.7241
 Hexadecapole moment (field-independent basis, Debye-Ang**3):
 XXXX=          -2898.0368 YYYY=          -2116.0116 ZZZZ=           -718.6432 XXXY=              6.5579
 XXXZ=             -0.3982 YYYX=             14.3566 YYYZ=            -71.6203 ZZZX=              3.9685
 ZZZY=            -70.7897 XXYY=           -835.3993 XXZZ=           -599.5389 YYZZ=           -475.5615
 XXYZ=            -25.7071 YYXZ=              1.4964 ZZXY=              2.8570
 N-N= 3.161253258485D+03 E-N=-1.100916172952D+04  KE= 1.963685339478D+03
 No NMR shielding tensors so no spin-rotation constants.
 Leave Link  601 at Mon Feb  3 22:26:29 2025, MaxMem=  5368709120 cpu:         2.1
 (Enter /home/k0335/k033513/app/g09/l701.exe)
 Compute integral first derivatives.
 ... and contract with generalized density number  0.
 D1PCM: PCM CHGder 1st derivatives, ID1Alg=3 FixD1E=F DoIter=F DoCFld=F I1PDM=0.
 GePol: Maximum number of non-zero 1st derivatives   =     203
 Leave Link  701 at Mon Feb  3 22:26:30 2025, MaxMem=  5368709120 cpu:        15.5
 (Enter /home/k0335/k033513/app/g09/l702.exe)
 L702 exits ... SP integral derivatives will be done elsewhere.
 Leave Link  702 at Mon Feb  3 22:26:30 2025, MaxMem=  5368709120 cpu:         0.2
 (Enter /home/k0335/k033513/app/g09/l703.exe)
 Compute integral first derivatives, UseDBF=F ICtDFT=           0.
 Integral derivatives from FoFJK, PRISM(SPDF).
 Calling FoFJK, ICntrl=      2127 FMM=F ISym2X=0 I1Cent= 0 IOpClX= 0 NMat=1 NMatS=1 NMatT=0.
 FoFJK:  IHMeth= 1 ICntrl=    2127 DoSepK=T KAlg= 0 I1Cent=   0 FoldK=F
 IRaf=         1 NMat=   1 IRICut=       1 DoRegI=T DoRafI=F ISym2E= 0.
 FoFCou: FMM=F IPFlag=           0 FMFlag=      100000 FMFlg1=         800
         NFxFlg=           0 DoJE=F BraDBF=F KetDBF=F FulRan=T
         wScrn=  0.000000 ICntrl=    2527 IOpCl=  0 I1Cent=           0 NGrid=           0
         NMat0=    1 NMatS0=      1 NMatT0=    0 NMatD0=    1 NMtDS0=    0 NMtDT0=    0
 Symmetry not used in FoFCou.
 Leave Link  703 at Mon Feb  3 22:26:36 2025, MaxMem=  5368709120 cpu:       134.3
 (Enter /home/k0335/k033513/app/g09/l716.exe)
 Dipole        =-2.52900972D-01 5.08402449D-02 5.13673938D-02
 -------------------------------------------------------------------
 Center     Atomic                   Forces (Hartrees/Bohr)
 Number     Number              X              Y              Z
 -------------------------------------------------------------------
      1        9          -0.008160772    0.000371323    0.001678141
      2        6           0.004458390    0.006999789    0.001832429
      3        6           0.016593840    0.023355007   -0.025428171
      4        9          -0.021899062   -0.002447577    0.002479570
      5        6          -0.038307069    0.020086942    0.020489829
      6        9           0.014719101   -0.017614120    0.000413427
      7        9           0.014568593    0.012764022   -0.004420284
      8        9           0.003617028   -0.002005344   -0.019076097
      9        9          -0.009993614    0.001442663    0.016850882
     10        6           0.009801490   -0.027977668   -0.032051707
     11        8          -0.028649077    0.025177658    0.023848725
     12        6           0.032215237   -0.039411247   -0.012892004
     13        9          -0.013978016    0.001491044   -0.002659183
     14        9           0.004653095    0.016678227    0.003512462
     15        6          -0.028798705   -0.007335538    0.003385736
     16        9           0.009118630   -0.009462191    0.005785560
     17        9           0.012851944   -0.009280589    0.002781043
     18        6           0.020336403   -0.032312486    0.004180921
     19        9          -0.018082753    0.015343394    0.004392837
     20        6           0.016074878    0.046003895    0.014406057
     21        9           0.019333175   -0.013050431   -0.004685257
     22        9           0.001629118   -0.016487788    0.010186136
     23        9          -0.016695058   -0.012127005   -0.009271635
     24        9          -0.005356350    0.015828058   -0.012371422
     25        9           0.009949553    0.003969959    0.006632004
 -------------------------------------------------------------------
 Cartesian Forces:  Max     0.046003895 RMS     0.016864181
 Leave Link  716 at Mon Feb  3 22:26:36 2025, MaxMem=  5368709120 cpu:         0.2
 (Enter /home/k0335/k033513/app/g09/l103.exe)

 GradGradGradGradGradGradGradGradGradGradGradGradGradGradGradGradGradGrad
 Berny optimization.
 FormGI is forming the generalized inverse of G from B-inverse, IUseBI=4.
 Internal  Forces:  Max     0.056307872 RMS     0.012662596
 Search for a local minimum.
 Step number   1 out of a maximum of  150
 All quantities printed in internal units (Hartrees-Bohrs-Radians)
 RMS Force = .12663D-01 SwitMx=.10000D-02 MixMth= 1
 Mixed Optimization -- RFO/linear search
 Second derivative matrix not updated -- first step.
 ITU=  0
     Eigenvalues ---    0.00243   0.00413   0.00554   0.00561   0.00614
     Eigenvalues ---    0.01113   0.03689   0.04454   0.04923   0.05174
     Eigenvalues ---    0.05247   0.05755   0.06563   0.06805   0.06903
     Eigenvalues ---    0.06976   0.08083   0.08275   0.08338   0.08375
     Eigenvalues ---    0.08492   0.08665   0.09824   0.10238   0.10998
     Eigenvalues ---    0.12158   0.13386   0.13723   0.14534   0.17184
     Eigenvalues ---    0.17488   0.18357   0.19345   0.19589   0.20424
     Eigenvalues ---    0.23373   0.25000   0.25000   0.25000   0.25000
     Eigenvalues ---    0.25000   0.25000   0.25000   0.25000   0.27331
     Eigenvalues ---    0.28560   0.29731   0.30410   0.30756   0.30802
     Eigenvalues ---    0.30815   0.36214   0.40410   0.50745   0.51554
     Eigenvalues ---    0.52299   0.52526   0.52684   0.53807   0.54077
     Eigenvalues ---    0.54150   0.54221   0.54388   0.54700   0.54844
     Eigenvalues ---    0.54861   0.55052   0.56301   0.56310
 RFO step:  Lambda=-7.41413466D-02 EMin= 2.43021515D-03
 Linear search not attempted -- first point.
 Maximum step size (   0.300) exceeded in Quadratic search.
    -- Step size scaled by   0.701
 Iteration  1 RMS(Cart)=  0.16355835 RMS(Int)=  0.00798682
 Iteration  2 RMS(Cart)=  0.01290619 RMS(Int)=  0.00065870
 Iteration  3 RMS(Cart)=  0.00010157 RMS(Int)=  0.00065677
 Iteration  4 RMS(Cart)=  0.00000015 RMS(Int)=  0.00065677
 ITry= 1 IFail=0 DXMaxC= 8.80D-01 DCOld= 1.00D+10 DXMaxT= 3.00D-01 DXLimC= 3.00D+00 Rises=F
 Variable       Old X    -DE/DX   Delta X   Delta X   Delta X     New X
                                 (Linear)    (Quad)   (Total)
    R1        2.57614  -0.00010   0.00000  -0.00012  -0.00012   2.57603
    R2        2.86393   0.04175   0.00000   0.07658   0.07658   2.94050
    R3        2.90127   0.03106   0.00000   0.06344   0.06296   2.96424
    R4        2.83654   0.03202   0.00000   0.06379   0.06365   2.90019
    R5        2.57399  -0.01628   0.00000  -0.01904  -0.01904   2.55495
    R6        2.88503   0.00640   0.00000   0.01208   0.01208   2.89711
    R7        2.57250  -0.01455   0.00000  -0.01697  -0.01697   2.55553
    R8        2.55831  -0.02100   0.00000  -0.02388  -0.02388   2.53443
    R9        2.55256  -0.01851   0.00000  -0.02083  -0.02083   2.53172
   R10        2.55399  -0.01830   0.00000  -0.02065  -0.02065   2.53334
   R11        2.75182  -0.01676   0.00000  -0.02896  -0.02895   2.72286
   R12        2.90929   0.01874   0.00000   0.03652   0.03652   2.94581
   R13        2.56208  -0.00475   0.00000  -0.00544  -0.00544   2.55664
   R14        2.67926  -0.02127   0.00000  -0.03279  -0.03227   2.64699
   R15        2.55086  -0.00742   0.00000  -0.00833  -0.00833   2.54253
   R16        2.53986  -0.01725   0.00000  -0.01897  -0.01897   2.52089
   R17        2.84529   0.00821   0.00000   0.01082   0.01096   2.85625
   R18        2.55895  -0.00976   0.00000  -0.01112  -0.01112   2.54784
   R19        2.53993  -0.00653   0.00000  -0.00719  -0.00719   2.53275
   R20        2.59121  -0.02142   0.00000  -0.02582  -0.02582   2.56539
   R21        2.86482   0.00954   0.00000   0.01752   0.01752   2.88233
   R22        2.58329  -0.01900   0.00000  -0.02258  -0.02258   2.56071
   R23        2.55680  -0.02040   0.00000  -0.02314  -0.02314   2.53366
   R24        2.55271  -0.01764   0.00000  -0.01986  -0.01986   2.53286
   R25        2.55961  -0.02058   0.00000  -0.02346  -0.02346   2.53616
    A1        1.92627  -0.00506   0.00000  -0.00723  -0.00734   1.91893
    A2        1.89000   0.00514   0.00000   0.00838   0.00781   1.89781
    A3        1.90292  -0.00609   0.00000  -0.02796  -0.02738   1.87554
    A4        1.99948   0.00526   0.00000   0.01635   0.01724   2.01672
    A5        1.95945   0.01502   0.00000   0.03290   0.03302   1.99246
    A6        1.77861  -0.01534   0.00000  -0.02581  -0.02715   1.75146
    A7        1.89144   0.00429   0.00000   0.02229   0.02313   1.91456
    A8        1.98583   0.02265   0.00000   0.04950   0.04985   2.03568
    A9        1.92579  -0.00051   0.00000   0.00942   0.01004   1.93583
   A10        1.91145  -0.01944   0.00000  -0.05503  -0.05595   1.85550
   A11        1.82814   0.00689   0.00000   0.01406   0.01221   1.84034
   A12        1.91437  -0.01519   0.00000  -0.04313  -0.04392   1.87045
   A13        1.94471  -0.01443   0.00000  -0.03470  -0.03501   1.90970
   A14        1.95306  -0.00303   0.00000  -0.00509  -0.00519   1.94786
   A15        1.95030  -0.00698   0.00000  -0.01305  -0.01320   1.93711
   A16        1.86461   0.00723   0.00000   0.01182   0.01157   1.87618
   A17        1.87242   0.01002   0.00000   0.01898   0.01863   1.89105
   A18        1.87404   0.00907   0.00000   0.02601   0.02605   1.90009
   A19        1.88037  -0.00752   0.00000  -0.01636  -0.01478   1.86559
   A20        2.04428   0.03456   0.00000   0.09182   0.09195   2.13624
   A21        1.91814  -0.00537   0.00000  -0.00267  -0.00308   1.91506
   A22        1.86420  -0.02233   0.00000  -0.07651  -0.07597   1.78822
   A23        1.82135   0.01059   0.00000   0.02250   0.02157   1.84292
   A24        1.92100  -0.01266   0.00000  -0.02788  -0.02969   1.89130
   A25        1.84389   0.02855   0.00000   0.05855   0.05751   1.90141
   A26        1.86292   0.01228   0.00000   0.03754   0.03710   1.90003
   A27        1.91398   0.00523   0.00000   0.00795   0.00788   1.92186
   A28        1.84848  -0.01219   0.00000  -0.02728  -0.02732   1.82116
   A29        1.88734   0.00189   0.00000   0.00698   0.00666   1.89400
   A30        1.95689  -0.00486   0.00000  -0.01796  -0.01754   1.93935
   A31        1.98980  -0.00128   0.00000  -0.00413  -0.00444   1.98536
   A32        1.75994   0.00747   0.00000   0.02417   0.02456   1.78450
   A33        1.93263  -0.00042   0.00000   0.00523   0.00522   1.93786
   A34        1.96971   0.00435   0.00000   0.01579   0.01619   1.98589
   A35        1.93434  -0.00895   0.00000  -0.03585  -0.03649   1.89786
   A36        1.99357  -0.00990   0.00000  -0.03342  -0.03358   1.95999
   A37        1.87352   0.00689   0.00000   0.02242   0.02144   1.89497
   A38        1.88663  -0.02271   0.00000  -0.05541  -0.05392   1.83271
   A39        2.01329   0.05631   0.00000   0.12465   0.12530   2.13859
   A40        1.90081  -0.01196   0.00000  -0.01442  -0.01471   1.88610
   A41        1.90325  -0.01799   0.00000  -0.04624  -0.04494   1.85831
   A42        1.83398   0.01470   0.00000   0.02559   0.02396   1.85794
   A43        1.91718  -0.02177   0.00000  -0.04269  -0.04425   1.87292
   A44        1.94523   0.00099   0.00000   0.00525   0.00517   1.95040
   A45        1.95461  -0.00869   0.00000  -0.01523  -0.01552   1.93909
   A46        1.94925  -0.01599   0.00000  -0.04124  -0.04166   1.90759
   A47        1.87887   0.01115   0.00000   0.03636   0.03638   1.91526
   A48        1.85884   0.00409   0.00000   0.00209   0.00189   1.86073
   A49        1.87218   0.01026   0.00000   0.01651   0.01590   1.88808
    D1        1.13255  -0.00183   0.00000   0.00440   0.00449   1.13704
    D2       -0.99808   0.00481   0.00000   0.02558   0.02531  -0.97277
    D3        3.12483   0.00849   0.00000   0.03852   0.03815  -3.12020
    D4       -1.00597  -0.00853   0.00000  -0.01300  -0.01283  -1.01880
    D5       -3.13660  -0.00189   0.00000   0.00817   0.00799  -3.12861
    D6        0.98631   0.00179   0.00000   0.02111   0.02083   1.00715
    D7       -3.02378  -0.00287   0.00000  -0.01386  -0.01332  -3.03710
    D8        1.12878   0.00378   0.00000   0.00731   0.00750   1.13628
    D9       -1.03150   0.00745   0.00000   0.02025   0.02035  -1.01115
   D10        1.68787  -0.00459   0.00000   0.00177   0.00134   1.68921
   D11       -0.41237   0.00732   0.00000   0.05310   0.05316  -0.35921
   D12       -2.62102   0.00118   0.00000   0.01823   0.01730  -2.60372
   D13       -2.43726  -0.00355   0.00000   0.01025   0.01020  -2.42707
   D14        1.74567   0.00837   0.00000   0.06158   0.06202   1.80769
   D15       -0.46297   0.00222   0.00000   0.02671   0.02615  -0.43681
   D16       -0.31707   0.00735   0.00000   0.04182   0.04133  -0.27574
   D17       -2.41732   0.01926   0.00000   0.09315   0.09315  -2.32417
   D18        1.65722   0.01311   0.00000   0.05828   0.05729   1.71451
   D19       -1.37421  -0.00080   0.00000  -0.01465  -0.01539  -1.38960
   D20        2.86067   0.00570   0.00000   0.01158   0.01138   2.87204
   D21        0.75995  -0.00583   0.00000  -0.03173  -0.03195   0.72800
   D22        2.76887  -0.00014   0.00000  -0.00779  -0.00827   2.76059
   D23        0.72056   0.00636   0.00000   0.01844   0.01849   0.73905
   D24       -1.38016  -0.00517   0.00000  -0.02487  -0.02484  -1.40500
   D25        0.62121  -0.00463   0.00000  -0.02827  -0.02876   0.59245
   D26       -1.42710   0.00187   0.00000  -0.00204  -0.00200  -1.42910
   D27        2.75537  -0.00966   0.00000  -0.04535  -0.04533   2.71004
   D28        3.06224  -0.00029   0.00000  -0.00946  -0.00954   3.05270
   D29       -1.13455  -0.00302   0.00000  -0.02161  -0.02164  -1.15620
   D30        0.96777   0.00162   0.00000  -0.00090  -0.00111   0.96666
   D31        0.94271  -0.00708   0.00000  -0.03177  -0.03082   0.91189
   D32        3.02910  -0.00981   0.00000  -0.04392  -0.04292   2.98618
   D33       -1.15176  -0.00517   0.00000  -0.02321  -0.02239  -1.17415
   D34       -1.05450   0.00382   0.00000   0.00569   0.00491  -1.04959
   D35        1.03189   0.00110   0.00000  -0.00646  -0.00720   1.02470
   D36        3.13422   0.00573   0.00000   0.01425   0.01334  -3.13563
   D37       -0.14416  -0.00712   0.00000  -0.03447  -0.03553  -0.17969
   D38        2.06609   0.01638   0.00000   0.01949   0.02019   2.08628
   D39       -2.18258  -0.00278   0.00000  -0.03506  -0.03570  -2.21828
   D40        3.06916  -0.00329   0.00000  -0.01059  -0.01101   3.05814
   D41       -1.07898  -0.00549   0.00000  -0.02775  -0.02933  -1.10831
   D42        1.08549  -0.00271   0.00000  -0.00462  -0.00515   1.08034
   D43        0.96040   0.00113   0.00000   0.00978   0.01190   0.97230
   D44        3.09544  -0.00107   0.00000  -0.00739  -0.00642   3.08902
   D45       -1.02327   0.00170   0.00000   0.01575   0.01776  -1.00551
   D46       -1.00679   0.00650   0.00000   0.03686   0.03642  -0.97037
   D47        1.12825   0.00430   0.00000   0.01970   0.01811   1.14636
   D48       -2.99046   0.00708   0.00000   0.04283   0.04229  -2.94817
   D49       -1.53017   0.01083   0.00000   0.03163   0.03245  -1.49771
   D50        2.71250  -0.00090   0.00000  -0.00150  -0.00140   2.71110
   D51        0.55802   0.00514   0.00000   0.01572   0.01610   0.57412
   D52       -0.75420   0.00235   0.00000   0.01549   0.01593  -0.73827
   D53        1.29285   0.00213   0.00000   0.01946   0.01926   1.31211
   D54       -2.87158  -0.00276   0.00000  -0.00243  -0.00201  -2.87360
   D55        1.27122   0.00732   0.00000   0.03499   0.03537   1.30659
   D56       -2.96491   0.00709   0.00000   0.03896   0.03869  -2.92622
   D57       -0.84616   0.00221   0.00000   0.01707   0.01743  -0.82874
   D58       -2.86015   0.00497   0.00000   0.02678   0.02708  -2.83306
   D59       -0.81309   0.00475   0.00000   0.03075   0.03040  -0.78269
   D60        1.30565  -0.00014   0.00000   0.00886   0.00914   1.31479
   D61        1.15418   0.01184   0.00000   0.06690   0.06677   1.22095
   D62       -0.95188   0.00288   0.00000   0.02714   0.02724  -0.92464
   D63       -3.05216   0.00698   0.00000   0.04546   0.04528  -3.00688
   D64       -3.00288   0.00765   0.00000   0.04594   0.04533  -2.95755
   D65        1.17425  -0.00131   0.00000   0.00618   0.00580   1.18005
   D66       -0.92603   0.00278   0.00000   0.02450   0.02384  -0.90220
   D67       -1.00169   0.00334   0.00000   0.02754   0.02811  -0.97358
   D68       -3.10774  -0.00562   0.00000  -0.01222  -0.01143  -3.11917
   D69        1.07516  -0.00153   0.00000   0.00609   0.00661   1.08177
         Item               Value     Threshold  Converged?
 Maximum Force            0.056308     0.000450     NO 
 RMS     Force            0.012663     0.000300     NO 
 Maximum Displacement     0.880391     0.001800     NO 
 RMS     Displacement     0.168403     0.001200     NO 
 Predicted change in Energy=-3.925566D-02
 Lowest energy point so far.  Saving SCF results.
 GradGradGradGradGradGradGradGradGradGradGradGradGradGradGradGradGradGrad

 Leave Link  103 at Mon Feb  3 22:26:37 2025, MaxMem=  5368709120 cpu:         7.1
 (Enter /home/k0335/k033513/app/g09/l202.exe)
                          Input orientation:                          
 ---------------------------------------------------------------------
 Center     Atomic      Atomic             Coordinates (Angstroms)
 Number     Number       Type             X           Y           Z
 ---------------------------------------------------------------------
      1          9           0       -0.267026   -0.005670    1.376817
      2          6           0       -0.521632   -0.099116    0.040895
      3          6           0       -1.249058    1.185104   -0.451967
      4          9           0       -0.426040    2.250674   -0.328834
      5          6           0       -2.548599    1.559008    0.270350
      6          9           0       -2.991275    2.738280   -0.190165
      7          9           0       -3.512121    0.654054    0.052267
      8          9           0       -2.348920    1.669851    1.591340
      9          9           0       -1.535288    1.101683   -1.771020
     10          6           0        0.814365   -0.447764   -0.703474
     11          8           0        0.823866   -1.875136   -0.900054
[...]
 Symmetry turned off by external request.
 Stoichiometry    C8F16O
 Framework group  C1[X(C8F16O)]
 Deg. of freedom    69
 Full point group                 C1      NOp   1
 Rotational constants (GHZ):      0.3065713      0.2427744      0.1733247
 Leave Link  202 at Mon Feb  3 22:34:58 2025, MaxMem=  5368709120 cpu:         0.5
 (Enter /home/k0335/k033513/app/g09/l601.exe)
 Copying SCF densities to generalized density rwf, IOpCl= 0 IROHF=0.

 **********************************************************************

            Population analysis using the SCF density.

 **********************************************************************

 Alpha  occ. eigenvalues --  -24.84051 -24.83727 -24.83713 -24.83686 -24.83678
 Alpha  occ. eigenvalues --  -24.83578 -24.83568 -24.83534 -24.83436 -24.83398
 Alpha  occ. eigenvalues --  -24.83347 -24.83220 -24.83159 -24.83141 -24.82790
 Alpha  occ. eigenvalues --  -24.82772 -19.32262 -10.54946 -10.54524 -10.52725
 Alpha  occ. eigenvalues --  -10.49514 -10.48994 -10.48647 -10.48091 -10.43616
 Alpha  occ. eigenvalues --   -1.43575  -1.43062  -1.41372  -1.39447  -1.38964
 Alpha  occ. eigenvalues --   -1.38684  -1.36268  -1.35871  -1.34209  -1.33827
 Alpha  occ. eigenvalues --   -1.33783  -1.33616  -1.33296  -1.32909  -1.32537
 Alpha  occ. eigenvalues --   -1.32244  -1.22587  -0.95821  -0.91815  -0.89223
 Alpha  occ. eigenvalues --   -0.86534  -0.81631  -0.78438  -0.76721  -0.75776
 Alpha  occ. eigenvalues --   -0.72765  -0.72200  -0.71111  -0.70978  -0.70567
 Alpha  occ. eigenvalues --   -0.69957  -0.69689  -0.69464  -0.68519  -0.68215
 Alpha  occ. eigenvalues --   -0.67242  -0.66603  -0.66201  -0.65578  -0.64587
 Alpha  occ. eigenvalues --   -0.63279  -0.58715  -0.57837  -0.57453  -0.57153
 Alpha  occ. eigenvalues --   -0.56780  -0.56605  -0.56503  -0.56015  -0.55815
 Alpha  occ. eigenvalues --   -0.55392  -0.54959  -0.54657  -0.54356  -0.54159
 Alpha  occ. eigenvalues --   -0.53942  -0.53559  -0.53048  -0.52793  -0.52548
 Alpha  occ. eigenvalues --   -0.51982  -0.51703  -0.51590  -0.50951  -0.50888
 Alpha  occ. eigenvalues --   -0.50569  -0.50381  -0.50115  -0.49803  -0.48931
 Alpha  occ. eigenvalues --   -0.48024  -0.46342  -0.44395  -0.43149  -0.41679
 Alpha virt. eigenvalues --    0.03524   0.08105   0.09337   0.12747   0.13782
 Alpha virt. eigenvalues --    0.14811   0.16407   0.19028   0.20970   0.23782
 Alpha virt. eigenvalues --    0.24407   0.25186   0.25616   0.26092   0.26857
 Alpha virt. eigenvalues --    0.28007   0.29013   0.29703   0.30135   0.31253
 Alpha virt. eigenvalues --    0.31941   0.33758   0.36142   0.36835   0.38537
 Alpha virt. eigenvalues --    0.45000   0.47634   0.48643   0.49948   0.50718
 Alpha virt. eigenvalues --    0.51558   0.52474   0.53971   0.55150   0.56477
 Alpha virt. eigenvalues --    0.57364   0.58551   0.61331   0.62795   0.64017
 Alpha virt. eigenvalues --    0.64803   0.66313   0.68769   0.69543   0.71528
 Alpha virt. eigenvalues --    0.73145   0.75265   0.77571   0.80609   0.86028
 Alpha virt. eigenvalues --    0.90907   0.91490   0.92525   0.95678   0.98772
 Alpha virt. eigenvalues --    1.01040   1.03627   1.05366   1.07552   1.08035
 Alpha virt. eigenvalues --    1.09144   1.09840   1.10708   1.11399   1.12280
 Alpha virt. eigenvalues --    1.13376   1.13921   1.14098   1.16139   1.17479
 Alpha virt. eigenvalues --    1.19296   1.19990   1.20831   1.22090   1.23896
 Alpha virt. eigenvalues --    1.25405   1.27697   1.28433   1.29139   1.30621
 Alpha virt. eigenvalues --    1.31167   1.31562   1.32700   1.33614   1.34995
 Alpha virt. eigenvalues --    1.35233   1.36123   1.36758   1.37288   1.38145
 Alpha virt. eigenvalues --    1.38597   1.38721   1.39333   1.39861   1.40737
 Alpha virt. eigenvalues --    1.41001   1.41737   1.42486   1.43178   1.43583
 Alpha virt. eigenvalues --    1.44122   1.44981   1.45612   1.46361   1.47478
 Alpha virt. eigenvalues --    1.47723   1.49576   1.50268   1.51128   1.52225
 Alpha virt. eigenvalues --    1.52694   1.53744   1.54095   1.55686   1.56933
 Alpha virt. eigenvalues --    1.57397   1.58194   1.59913   1.62089   1.63778
 Alpha virt. eigenvalues --    1.65189   1.65891   1.66399   1.67903   1.70174
 Alpha virt. eigenvalues --    1.71523   1.72608   1.73547   1.74163   1.74657
 Alpha virt. eigenvalues --    1.74794   1.76072   1.77088   1.78314   1.80968
 Alpha virt. eigenvalues --    1.81674   1.82725   1.82819   1.83154   1.83817
 Alpha virt. eigenvalues --    1.85233   1.85969   1.86382   1.86537   1.87548
 Alpha virt. eigenvalues --    1.88360   1.88434   1.88765   1.90174   1.90654
 Alpha virt. eigenvalues --    1.91530   1.92673   1.93067   1.95275   1.96746
 Alpha virt. eigenvalues --    1.97218   1.97945   1.98515   1.99611   2.01157
 Alpha virt. eigenvalues --    2.02142   2.02288   2.02860   2.02953   2.03277
 Alpha virt. eigenvalues --    2.03650   2.03767   2.05295   2.05773   2.07687
 Alpha virt. eigenvalues --    2.08264   2.09438   2.10788   2.11274   2.11841
 Alpha virt. eigenvalues --    2.13048   2.15381   2.15776   2.16457   2.17469
 Alpha virt. eigenvalues --    2.18288   2.18960   2.20202   2.21344   2.24269
 Alpha virt. eigenvalues --    2.25958   2.27398   2.28360   2.30200   2.30936
 Alpha virt. eigenvalues --    2.32837   2.35236   2.35786   2.36435   2.36819
 Alpha virt. eigenvalues --    2.39216   2.40170   2.44256   2.45164   2.45568
 Alpha virt. eigenvalues --    2.46445   2.47348   2.48894   2.50021   2.51902
 Alpha virt. eigenvalues --    2.53246   2.54058   2.58687   2.60230   2.62706
 Alpha virt. eigenvalues --    2.64839   2.67598   2.70309   2.72408   2.73151
 Alpha virt. eigenvalues --    2.76608   2.80081   2.81033   2.81571   2.82732
 Alpha virt. eigenvalues --    2.85499   2.88028   2.90594   2.91240   2.93554
 Alpha virt. eigenvalues --    2.95161   2.96435   2.97695   2.98133   2.99720
 Alpha virt. eigenvalues --    3.00802   3.01745   3.04204   3.08238   3.09253
 Alpha virt. eigenvalues --    3.10960   3.11796   3.12201   3.13125   3.13601
 Alpha virt. eigenvalues --    3.15124   3.15534   3.17984   3.22255   3.22668
 Alpha virt. eigenvalues --    3.25565   3.27135   3.29914   3.36946   3.37837
 Alpha virt. eigenvalues --    4.18092   4.24535   4.31055   4.34291   4.42586
 Alpha virt. eigenvalues --    4.53122   4.56221   4.63407   4.71064   4.73023
 Alpha virt. eigenvalues --    4.84788   4.95557   4.97824   5.09358   5.13079
 Alpha virt. eigenvalues --    5.24698   5.34356   5.43845   5.63631   5.79284
 Alpha virt. eigenvalues --    5.87336   6.25559   6.30838   6.44772   6.75906
          Condensed to atoms (all electrons):
               1          2          3          4          5          6
     1  F    9.146598   0.197914  -0.026062  -0.000187   0.006872   0.000002
     2  C    0.197914   5.666183   0.133890  -0.034093  -0.048101   0.002466
     3  C   -0.026062   0.133890   4.779475   0.231546   0.258912  -0.025245
     4  F   -0.000187  -0.034093   0.231546   9.108067  -0.016133  -0.000506
     5  C    0.006872  -0.048101   0.258912  -0.016133   4.153934   0.304937
     6  F    0.000002   0.002466  -0.025245  -0.000506   0.304937   9.033888
     7  F   -0.000344   0.000654  -0.040354   0.000367   0.280822  -0.039161
     8  F    0.000150   0.001547  -0.037368  -0.000142   0.294986  -0.039731
     9  F    0.000330  -0.036466   0.235776  -0.033330  -0.015482  -0.000663
    10  C   -0.027567   0.130261  -0.031680   0.007473   0.003646  -0.000027
    11  O    0.000207  -0.027106   0.002566   0.000014  -0.000034   0.000000
    12  C    0.006254  -0.063080   0.003170  -0.000049   0.000081   0.000000
    13  F   -0.000192   0.003599   0.000030   0.000000  -0.000002   0.000000
    14  F    0.000000   0.002147  -0.000008   0.000000   0.000000   0.000000
    15  C   -0.024564   0.117089  -0.032959   0.001807  -0.006736   0.000032
    16  F    0.000349  -0.050152   0.007937   0.000001  -0.001321   0.000001
    17  F   -0.000457  -0.029891  -0.003373  -0.000001   0.003699   0.000000
    18  C    0.010922  -0.050128  -0.000530  -0.004102  -0.000052   0.000000
    19  F    0.000004   0.002137   0.000018   0.000001   0.000000   0.000000
    20  C   -0.001613  -0.001500   0.000840   0.009588   0.000002   0.000000
    21  F    0.000208   0.007372  -0.000945  -0.000201  -0.000022   0.000000
    22  F    0.000004  -0.001536   0.000645  -0.000173  -0.000002   0.000000
    23  F    0.000001  -0.000014   0.000000   0.000001   0.000000   0.000000
    24  F   -0.001025   0.003764   0.000135   0.000001   0.000002   0.000000
    25  F    0.000347  -0.044481   0.019537  -0.001657   0.000188   0.000000
               7          8          9         10         11         12
     1  F   -0.000344   0.000150   0.000330  -0.027567   0.000207   0.006254
     2  C    0.000654   0.001547  -0.036466   0.130261  -0.027106  -0.063080
     3  C   -0.040354  -0.037368   0.235776  -0.031680   0.002566   0.003170
     4  F    0.000367  -0.000142  -0.033330   0.007473   0.000014  -0.000049
     5  C    0.280822   0.294986  -0.015482   0.003646  -0.000034   0.000081
     6  F   -0.039161  -0.039731  -0.000663  -0.000027   0.000000   0.000000
     7  F    9.059425  -0.037810  -0.000371   0.000115   0.000000   0.000161
     8  F   -0.037810   9.049202   0.000352  -0.000033   0.000000   0.000001
     9  F   -0.000371   0.000352   9.105552   0.001372  -0.000071  -0.000197
    10  C    0.000115  -0.000033   0.001372   4.949587   0.176330  -0.032807
    11  O    0.000000   0.000000  -0.000071   0.176330   8.358054   0.200459
    12  C    0.000161   0.000001  -0.000197  -0.032807   0.200459   4.307325
    13  F    0.000000   0.000000   0.000000  -0.000076  -0.047754   0.290880
    14  F    0.000000   0.000000   0.000000   0.001564  -0.045795   0.321474
    15  C    0.016297  -0.000440   0.003602  -0.028203  -0.048282   0.247667
    16  F   -0.000520   0.000001  -0.000980   0.009254  -0.001737  -0.019247
    17  F   -0.001348  -0.000043   0.000006   0.002015   0.000938  -0.023009
    18  C    0.000000   0.000005   0.000099   0.176650  -0.032602  -0.002457
    19  F    0.000000   0.000000   0.000000  -0.023194  -0.000751   0.000264
    20  C    0.000000  -0.000004  -0.000003  -0.049917   0.002032   0.000269
    21  F    0.000000   0.000002   0.000000  -0.002117  -0.000001  -0.000009
    22  F    0.000000   0.000000  -0.000001   0.005581   0.000008   0.000000
    23  F    0.000000   0.000000   0.000000   0.002258  -0.000006  -0.000001
    24  F    0.000000   0.000000   0.000000  -0.034164  -0.001044   0.004769
    25  F    0.000000   0.000000  -0.001489   0.266797  -0.043217   0.000519
              13         14         15         16         17         18
     1  F   -0.000192   0.000000  -0.024564   0.000349  -0.000457   0.010922
     2  C    0.003599   0.002147   0.117089  -0.050152  -0.029891  -0.050128
     3  C    0.000030  -0.000008  -0.032959   0.007937  -0.003373  -0.000530
     4  F    0.000000   0.000000   0.001807   0.000001  -0.000001  -0.004102
     5  C   -0.000002   0.000000  -0.006736  -0.001321   0.003699  -0.000052
     6  F    0.000000   0.000000   0.000032   0.000001   0.000000   0.000000
     7  F    0.000000   0.000000   0.016297  -0.000520  -0.001348   0.000000
     8  F    0.000000   0.000000  -0.000440   0.000001  -0.000043   0.000005
     9  F    0.000000   0.000000   0.003602  -0.000980   0.000006   0.000099
    10  C   -0.000076   0.001564  -0.028203   0.009254   0.002015   0.176650
    11  O   -0.047754  -0.045795  -0.048282  -0.001737   0.000938  -0.032602
    12  C    0.290880   0.321474   0.247667  -0.019247  -0.023009  -0.002457
    13  F    9.076420  -0.041473  -0.038784   0.000360   0.000594   0.000915
    14  F   -0.041473   9.026391  -0.028706  -0.000359   0.000019  -0.000059
    15  C   -0.038784  -0.028706   4.771924   0.252901   0.261066   0.002269
    16  F    0.000360  -0.000359   0.252901   9.093587  -0.035048   0.000027
    17  F    0.000594   0.000019   0.261066  -0.035048   9.076589   0.000016
    18  C    0.000915  -0.000059   0.002269   0.000027   0.000016   4.785326
    19  F   -0.000001   0.000000  -0.000077   0.000000   0.000000   0.241243
    20  C   -0.000001   0.000000  -0.000124   0.000000   0.000000   0.241488
    21  F    0.000000   0.000000   0.000057   0.000000   0.000000  -0.036246
    22  F    0.000000   0.000000  -0.000003   0.000000   0.000000  -0.037637
    23  F    0.000000   0.000000   0.000000   0.000000   0.000000  -0.022121
    24  F    0.000077   0.000001  -0.001544   0.000000   0.000001   0.242803
    25  F   -0.000005  -0.000001   0.001587  -0.000132  -0.000001  -0.031352
              19         20         21         22         23         24
     1  F    0.000004  -0.001613   0.000208   0.000004   0.000001  -0.001025
     2  C    0.002137  -0.001500   0.007372  -0.001536  -0.000014   0.003764
     3  C    0.000018   0.000840  -0.000945   0.000645   0.000000   0.000135
     4  F    0.000001   0.009588  -0.000201  -0.000173   0.000001   0.000001
     5  C    0.000000   0.000002  -0.000022  -0.000002   0.000000   0.000002
     6  F    0.000000   0.000000   0.000000   0.000000   0.000000   0.000000
     7  F    0.000000   0.000000   0.000000   0.000000   0.000000   0.000000
     8  F    0.000000  -0.000004   0.000002   0.000000   0.000000   0.000000
     9  F    0.000000  -0.000003   0.000000  -0.000001   0.000000   0.000000
    10  C   -0.023194  -0.049917  -0.002117   0.005581   0.002258  -0.034164
    11  O   -0.000751   0.002032  -0.000001   0.000008  -0.000006  -0.001044
    12  C    0.000264   0.000269  -0.000009   0.000000  -0.000001   0.004769
    13  F   -0.000001  -0.000001   0.000000   0.000000   0.000000   0.000077
    14  F    0.000000   0.000000   0.000000   0.000000   0.000000   0.000001
    15  C   -0.000077  -0.000124   0.000057  -0.000003   0.000000  -0.001544
    16  F    0.000000   0.000000   0.000000   0.000000   0.000000   0.000000
    17  F    0.000000   0.000000   0.000000   0.000000   0.000000   0.000001
    18  C    0.241243   0.241488  -0.036246  -0.037637  -0.022121   0.242803
    19  F    9.099614  -0.019738   0.000371  -0.000203  -0.000332  -0.033284
    20  C   -0.019738   4.198066   0.284543   0.284054   0.295842  -0.019293
    21  F    0.000371   0.284543   9.060995  -0.037186  -0.039333   0.000160
    22  F   -0.000203   0.284054  -0.037186   9.063353  -0.038434   0.000362
    23  F   -0.000332   0.295842  -0.039333  -0.038434   9.042483  -0.000595
    24  F   -0.033284  -0.019293   0.000160   0.000362  -0.000595   9.099474
    25  F   -0.000584   0.000464  -0.000012   0.000409  -0.000002   0.000347
              25
     1  F    0.000347
     2  C   -0.044481
     3  C    0.019537
     4  F   -0.001657
     5  C    0.000188
     6  F    0.000000
     7  F    0.000000
     8  F    0.000000
     9  F   -0.001489
    10  C    0.266797
    11  O   -0.043217
    12  C    0.000519
    13  F   -0.000005
    14  F   -0.000001
    15  C    0.001587
    16  F   -0.000132
    17  F   -0.000001
    18  C   -0.031352
    19  F   -0.000584
    20  C    0.000464
    21  F   -0.000012
    22  F    0.000409
    23  F   -0.000002
    24  F    0.000347
    25  F    9.092388
 Mulliken charges:
               1
     1  F   -0.288154
     2  C    0.117526
     3  C    0.524051
     4  F   -0.268290
     5  C    0.779804
     6  F   -0.235994
     7  F   -0.237933
     8  F   -0.230672
     9  F   -0.258037
    10  C    0.496884
    11  O   -0.492207
    12  C    0.757562
    13  F   -0.244587
    14  F   -0.235196
    15  C    0.534122
    16  F   -0.254923
    17  F   -0.251771
    18  C    0.515521
    19  F   -0.265489
    20  C    0.775004
    21  F   -0.237637
    22  F   -0.239240
    23  F   -0.239748
    24  F   -0.260948
    25  F   -0.259649
 Sum of Mulliken charges =   0.00000
 Mulliken charges with hydrogens summed into heavy atoms:
               1
     1  F   -0.288154
     2  C    0.117526
     3  C    0.524051
     4  F   -0.268290
     5  C    0.779804
     6  F   -0.235994
     7  F   -0.237933
     8  F   -0.230672
     9  F   -0.258037
    10  C    0.496884
    11  O   -0.492207
    12  C    0.757562
    13  F   -0.244587
    14  F   -0.235196
    15  C    0.534122
    16  F   -0.254923
    17  F   -0.251771
    18  C    0.515521
    19  F   -0.265489
    20  C    0.775004
    21  F   -0.237637
    22  F   -0.239240
    23  F   -0.239748
    24  F   -0.260948
    25  F   -0.259649
 Electronic spatial extent (au):  <R**2>=           5965.0964
 Charge=              0.0000 electrons
 Dipole moment (field-independent basis, Debye):
    X=             -0.6327    Y=              0.2595    Z=              0.0926  Tot=              0.6901
 Quadrupole moment (field-independent basis, Debye-Ang):
   XX=           -130.0753   YY=           -130.1382   ZZ=           -131.0255
   XY=              0.5451   XZ=              0.2320   YZ=              0.1047
 Traceless Quadrupole moment (field-independent basis, Debye-Ang):
   XX=              0.3377   YY=              0.2748   ZZ=             -0.6125
   XY=              0.5451   XZ=              0.2320   YZ=              0.1047
 Octapole moment (field-independent basis, Debye-Ang**2):
  XXX=             -6.0254  YYY=              7.5040  ZZZ=             37.2029  XYY=             -2.6435
  XXY=              3.9957  XXZ=             13.6642  XZZ=             -0.7599  YZZ=              2.8054
  YYZ=             13.5197  XYZ=             -0.6525
 Hexadecapole moment (field-independent basis, Debye-Ang**3):
 XXXX=          -2960.8332 YYYY=          -2191.8121 ZZZZ=           -722.9568 XXXY=             13.4136
 XXXZ=            -25.4180 YYYX=             22.7774 YYYZ=            -75.4716 ZZZX=            -20.5349
 ZZZY=            -75.8268 XXYY=           -853.4840 XXZZ=           -613.3681 YYZZ=           -491.6254
 XXYZ=            -24.2300 YYXZ=             -7.9535 ZZXY=              5.4230
 N-N= 3.132192419857D+03 E-N=-1.095153887695D+04  KE= 1.964002932482D+03
 No NMR shielding tensors so no spin-rotation constants.
 Leave Link  601 at Mon Feb  3 22:34:59 2025, MaxMem=  5368709120 cpu:         2.8
 (Enter /home/k0335/k033513/app/g09/l9999.exe)
 1\1\GINC-C18U05N3\FOpt\RCAM-B3LYP\6-31G(d,p)\C8F16O1\K033513\03-Feb-20
 25\0\\#p CAM-B3LYP/6-31G(d,p) opt SCRF=(PCM,Solvent=Generic,Read) NoSy
 mm out=wfn\\Title S0_neu\\0,1\F,-0.2342088164,0.0605220788,1.341396779
 4\C,-0.4928220692,-0.1219492316,0.0117844837\C,-1.1601306375,1.1606240
 358,-0.5201325669\F,-0.2585382321,2.163147054,-0.4564459394\C,-2.40005
 28675,1.6202778591,0.2744479521\F,-2.9305337894,2.6760274388,-0.334205
 9427\F,-3.3058828311,0.6403140558,0.3098636961\F,-2.070551791,1.955023
 7778,1.5168943459\F,-1.5366861072,0.9963862853,-1.7981927326\C,0.83273
 05922,-0.4885681302,-0.7344988467\O,0.8074462863,-1.8721355053,-0.9436
 578416\C,-0.2305166966,-2.5008579583,-0.291358477\F,0.1683676336,-2.95
 81913611,0.9035495999\F,-0.6427827435,-3.5277596611,-1.0240742405\C,-1
 .3165011053,-1.4262994934,-0.1071411836\F,-2.1001331447,-1.4216029954,
 -1.1976522353\F,-2.0557561418,-1.6474831116,0.9812208759\C,2.170255326
 2,-0.1977284675,-0.0044372274\F,3.137023557,-0.6672000254,-0.817213095
 8\C,2.5413209526,1.2639856345,0.3104321386\F,1.7456357121,1.7734201462
 ,1.2474704064\F,2.4591479747,2.009574605,-0.7897195464\F,3.7950792647,
 1.2901872846,0.7575194726\F,2.1885746567,-0.8945891516,1.1452351266\F,
 0.8895150171,0.1148738367,-1.9429490012\\Version=ES64L-G09RevD.01\HF=-
 1976.9949945\RMSD=8.484e-09\RMSF=9.427e-06\Dipole=-0.248931,0.1020842,
 0.0364241\Quadrupole=0.2511001,0.2042916,-0.4553917,0.4052643,0.172483
 3,0.0778724\PG=C01 [X(C8F16O1)]\\@

 Writing a WFN file to "cytopopt/S0/S0_neu.wfn"


 The best way to pay for a lovely moment is to enjoy it.
 -- Richard Bach
 Job cpu time:       0 days  1 hours 48 minutes 16.0 seconds.
 File lengths (MBytes):  RWF=    226 Int=      0 D2E=      0 Chk=     13 Scr=      1
 Normal termination of Gaussian 09 at Mon Feb  3 22:34:59 2025.
