 Entering Gaussian System, Link 0=g09
 Initial command:
 /home/k0335/k033513/app/g09/l1.exe "/home/k0335/k033513/app/g09/scratch/Gau-677934.inp" -scrdir="/home/k0335/k033513/app/g09/scratch/"
 Default is to use a total of  36 processors:
                               36 via shared-memory
                                1 via Linda
 Entering Link 1 = /home/k0335/k033513/app/g09/l1.exe PID=    677935.
  
 Copyright (c) 1988,1990,1992,1993,1995,1998,2003,2009,2013,
            Gaussian, Inc.  All Rights Reserved.
  
 This is part of the Gaussian(R) 09 program.  It is based on
 the Gaussian(R) 03 system (copyright 2003, Gaussian, Inc.),
 the Gaussian(R) 98 system (copyright 1998, Gaussian, Inc.),
 the Gaussian(R) 94 system (copyright 1995, Gaussian, Inc.),
 the Gaussian 92(TM) system (copyright 1992, Gaussian, Inc.),
 the Gaussian 90(TM) system (copyright 1990, Gaussian, Inc.),
 the Gaussian 88(TM) system (copyright 1988, Gaussian, Inc.),
 the Gaussian 86(TM) system (copyright 1986, Carnegie Mellon
 University), and the Gaussian 82(TM) system (copyright 1983,
 Carnegie Mellon University). Gaussian is a federally registered
 trademark of Gaussian, Inc.
  
 This software contains proprietary and confidential information,
 including trade secrets, belonging to Gaussian, Inc.
  
 This software is provided under written license and may be
 used, copied, transmitted, or stored only in accord with that
 written license.
  
 The following legend is applicable only to US Government
 contracts under FAR:
  
                    RESTRICTED RIGHTS LEGEND
  
 Use, reproduction and disclosure by the US Government is
 subject to restrictions as set forth in subparagraphs (a)
 and (c) of the Commercial Computer Software - Restricted
 Rights clause in FAR 52.227-19.
  
 Gaussian, Inc.
 340 Quinnipiac St., Bldg. 40, Wallingford CT 06492
  
  
 ---------------------------------------------------------------
 Warning -- This program may not be used in any manner that
 competes with the business of Gaussian, Inc. or will provide
 assistance to any competitor of Gaussian, Inc.  The licensee
 of this program is prohibited from giving any competitor of
 Gaussian, Inc. access to this program.  By using this program,
 the user acknowledges that Gaussian, Inc. is engaged in the
 business of creating and licensing software in the field of
 computational chemistry and represents and warrants to the
 licensee that it is not a competitor of Gaussian, Inc. and that
 it will not use this program in any manner prohibited above.
 ---------------------------------------------------------------
  

 Cite this work as:
 Gaussian 09, Revision D.01,
 M. J. Frisch, G. W. Trucks, H. B. Schlegel, G. E. Scuseria, 
 M. A. Robb, J. R. Cheeseman, G. Scalmani, V. Barone, B. Mennucci, 
 G. A. Petersson, H. Nakatsuji, M. Caricato, X. Li, H. P. Hratchian, 
 A. F. Izmaylov, J. Bloino, G. Zheng, J. L. Sonnenberg, M. Hada, 
 M. Ehara, K. Toyota, R. Fukuda, J. Hasegawa, M. Ishida, T. Nakajima, 
 Y. Honda, O. Kitao, H. Nakai, T. Vreven, J. A. Montgomery, Jr., 
 J. E. Peralta, F. Ogliaro, M. Bearpark, J. J. Heyd, E. Brothers, 
 K. N. Kudin, V. N. Staroverov, T. Keith, R. Kobayashi, J. Normand, 
 K. Raghavachari, A. Rendell, J. C. Burant, S. S. Iyengar, J. Tomasi, 
 M. Cossi, N. Rega, J. M. Millam, M. Klene, J. E. Knox, J. B. Cross, 
 V. Bakken, C. Adamo, J. Jaramillo, R. Gomperts, R. E. Stratmann, 
 O. Yazyev, A. J. Austin, R. Cammi, C. Pomelli, J. W. Ochterski, 
 R. L. Martin, K. Morokuma, V. G. Zakrzewski, G. A. Voth, 
 P. Salvador, J. J. Dannenberg, S. Dapprich, A. D. Daniels, 
 O. Farkas, J. B. Foresman, J. V. Ortiz, J. Cioslowski, 
 and D. J. Fox, Gaussian, Inc., Wallingford CT, 2013.
 
 ******************************************
 Gaussian 09:  ES64L-G09RevD.01 24-Apr-2013
                 3-Mar-2024 
 ******************************************
 %nprocshared=24
 Will use up to   24 processors via shared memory.
 %mem=40GB
 %rwf=A1635117081/A1635117081_p1.rwf
 %nosave
 %chk=A1635117081/A1635117081_p1.chk
 ----------------------------------------------------------------------
 #p CAM-B3LYP/6-31G(d,p) SCRF=(PCM,Solvent=Generic,Read) NoSymm out=wfn
 ----------------------------------------------------------------------
 1/38=1,40=2/1;
 2/12=2,15=1,17=6,18=5,40=1/2;
 3/5=1,6=6,7=101,11=2,16=1,25=1,30=1,70=2203,72=-2,74=-40/1,2,3;
 4//1;
 5/5=2,38=5/2;
 6/7=2,8=2,9=2,10=2,28=1/1;
 99/5=1,6=100,9=1/99;
 Leave Link    1 at Sun Mar  3 17:32:33 2024, MaxMem=  5368709120 cpu:         1.1
 (Enter /home/k0335/k033513/app/g09/l101.exe)
 --------------------
 Title A1635117081_p1
 --------------------
 Symbolic Z-matrix:
 Charge =  1 Multiplicity = 2
 C                    -0.24098   6.05132   0.37508 
 C                     0.21913   4.9071    1.2641 
 C                    -0.00966   3.55246   0.5959 
 C                     0.4552    2.40278   1.49392 
 N                     0.23554   1.10664   0.84988 
 C                     1.25763   0.59444   0.06981 
 O                     2.34295   1.15368  -0.05896 
 N                     0.98626  -0.59136  -0.56142 
 C                     1.94284  -1.07689  -1.5438 
 F                     1.33848  -2.07959  -2.25412 
 F                     2.10874  -0.09593  -2.47084 
 C                     3.31516  -1.61688  -1.03927 
 F                     4.0496   -2.049    -2.11321 
 O                     4.1311   -0.72202  -0.28566 
 C                     4.97707   0.04363  -1.10278 
 F                     5.44125   1.08925  -0.39209 
 F                     4.34405   0.50078  -2.19366 
 F                     6.02961  -0.70845  -1.47919 
 C                     2.99713  -2.83249  -0.17144 
 F                     4.13098  -3.42002   0.28662 
 F                     2.26196  -2.50632   0.91908 
 F                     2.30714  -3.78617  -0.83757 
 C                    -0.38426  -0.94777  -0.73779 
 N                    -1.13146  -0.76384   0.4677 
 C                    -2.45399  -1.38105   0.6176 
 F                    -2.74426  -1.36544   1.95706 
 F                    -3.36594  -0.57768   0.01584 
 C                    -2.66488  -2.86561   0.17666 
 F                    -1.43181  -3.4818    0.17591 
 O                    -3.39894  -3.66147   1.12107 
 C                    -4.77671  -3.38431   1.1508 
 F                    -5.37105  -4.02777   0.13279 
 F                    -5.0066   -2.06916   1.04622 
 F                    -5.28747  -3.83322   2.30935 
 C                    -3.20587  -2.88454  -1.25762 
 F                    -4.42109  -2.31209  -1.37609 
 F                    -3.32131  -4.15428  -1.71397 
 F                    -2.38236  -2.23407  -2.1131 
 C                    -0.97691   0.46632   1.08558 
 O                    -1.84292   0.9634    1.80159 
 H                     0.3067    6.05636  -0.57274 
 H                    -0.06812   7.01085   0.8724 
 H                    -1.3101    5.97093   0.15407 
 H                     1.2837    5.03471   1.49227 
 H                    -0.32432   4.94971   2.21515 
 H                     0.52823   3.51584  -0.35961 
 H                    -1.07435   3.43098   0.36084 
 H                     1.51993   2.5211    1.72726 
 H                    -0.08077   2.43568   2.44971 
 H                    -0.81756  -0.33008  -1.5333 
 H                    -0.41671  -1.99866  -1.01601 
 
 NAtoms=     51 NQM=       51 NQMF=       0 NMMI=      0 NMMIF=      0
                NMic=       0 NMicF=      0.
                    Isotopes and Nuclear Properties:
 (Nuclear quadrupole moments (NQMom) in fm**2, nuclear magnetic moments (NMagM)
  in nuclear magnetons)

  Atom         1           2           3           4           5           6           7           8           9          10
 IAtWgt=          12          12          12          12          14          12          16          14          12          19
 AtmWgt=  12.0000000  12.0000000  12.0000000  12.0000000  14.0030740  12.0000000  15.9949146  14.0030740  12.0000000  18.9984033
 NucSpn=           0           0           0           0           2           0           0           2           0           1
 AtZEff=   0.0000000   0.0000000   0.0000000   0.0000000   0.0000000   0.0000000   0.0000000   0.0000000   0.0000000   0.0000000
 NQMom=    0.0000000   0.0000000   0.0000000   0.0000000   2.0440000   0.0000000   0.0000000   2.0440000   0.0000000   0.0000000
 NMagM=    0.0000000   0.0000000   0.0000000   0.0000000   0.4037610   0.0000000   0.0000000   0.4037610   0.0000000   2.6288670
 AtZNuc=   6.0000000   6.0000000   6.0000000   6.0000000   7.0000000   6.0000000   8.0000000   7.0000000   6.0000000   9.0000000

  Atom        11          12          13          14          15          16          17          18          19          20
 IAtWgt=          19          12          19          16          12          19          19          19          12          19
 AtmWgt=  18.9984033  12.0000000  18.9984033  15.9949146  12.0000000  18.9984033  18.9984033  18.9984033  12.0000000  18.9984033
 NucSpn=           1           0           1           0           0           1           1           1           0           1
 AtZEff=   0.0000000   0.0000000   0.0000000   0.0000000   0.0000000   0.0000000   0.0000000   0.0000000   0.0000000   0.0000000
 NQMom=    0.0000000   0.0000000   0.0000000   0.0000000   0.0000000   0.0000000   0.0000000   0.0000000   0.0000000   0.0000000
 NMagM=    2.6288670   0.0000000   2.6288670   0.0000000   0.0000000   2.6288670   2.6288670   2.6288670   0.0000000   2.6288670
 AtZNuc=   9.0000000   6.0000000   9.0000000   8.0000000   6.0000000   9.0000000   9.0000000   9.0000000   6.0000000   9.0000000

  Atom        21          22          23          24          25          26          27          28          29          30
 IAtWgt=          19          19          12          14          12          19          19          12          19          16
 AtmWgt=  18.9984033  18.9984033  12.0000000  14.0030740  12.0000000  18.9984033  18.9984033  12.0000000  18.9984033  15.9949146
 NucSpn=           1           1           0           2           0           1           1           0           1           0
 AtZEff=   0.0000000   0.0000000   0.0000000   0.0000000   0.0000000   0.0000000   0.0000000   0.0000000   0.0000000   0.0000000
 NQMom=    0.0000000   0.0000000   0.0000000   2.0440000   0.0000000   0.0000000   0.0000000   0.0000000   0.0000000   0.0000000
 NMagM=    2.6288670   2.6288670   0.0000000   0.4037610   0.0000000   2.6288670   2.6288670   0.0000000   2.6288670   0.0000000
 AtZNuc=   9.0000000   9.0000000   6.0000000   7.0000000   6.0000000   9.0000000   9.0000000   6.0000000   9.0000000   8.0000000

  Atom        31          32          33          34          35          36          37          38          39          40
 IAtWgt=          12          19          19          19          12          19          19          19          12          16
 AtmWgt=  12.0000000  18.9984033  18.9984033  18.9984033  12.0000000  18.9984033  18.9984033  18.9984033  12.0000000  15.9949146
 NucSpn=           0           1           1           1           0           1           1           1           0           0
 AtZEff=   0.0000000   0.0000000   0.0000000   0.0000000   0.0000000   0.0000000   0.0000000   0.0000000   0.0000000   0.0000000
 NQMom=    0.0000000   0.0000000   0.0000000   0.0000000   0.0000000   0.0000000   0.0000000   0.0000000   0.0000000   0.0000000
 NMagM=    0.0000000   2.6288670   2.6288670   2.6288670   0.0000000   2.6288670   2.6288670   2.6288670   0.0000000   0.0000000
 AtZNuc=   6.0000000   9.0000000   9.0000000   9.0000000   6.0000000   9.0000000   9.0000000   9.0000000   6.0000000   8.0000000

  Atom        41          42          43          44          45          46          47          48          49          50
 IAtWgt=           1           1           1           1           1           1           1           1           1           1
 AtmWgt=   1.0078250   1.0078250   1.0078250   1.0078250   1.0078250   1.0078250   1.0078250   1.0078250   1.0078250   1.0078250
 NucSpn=           1           1           1           1           1           1           1           1           1           1
 AtZEff=   0.0000000   0.0000000   0.0000000   0.0000000   0.0000000   0.0000000   0.0000000   0.0000000   0.0000000   0.0000000
 NQMom=    0.0000000   0.0000000   0.0000000   0.0000000   0.0000000   0.0000000   0.0000000   0.0000000   0.0000000   0.0000000
 NMagM=    2.7928460   2.7928460   2.7928460   2.7928460   2.7928460   2.7928460   2.7928460   2.7928460   2.7928460   2.7928460
 AtZNuc=   1.0000000   1.0000000   1.0000000   1.0000000   1.0000000   1.0000000   1.0000000   1.0000000   1.0000000   1.0000000

  Atom        51
 IAtWgt=           1
 AtmWgt=   1.0078250
 NucSpn=           1
 AtZEff=   0.0000000
 NQMom=    0.0000000
 NMagM=    2.7928460
 AtZNuc=   1.0000000
 Leave Link  101 at Sun Mar  3 17:32:33 2024, MaxMem=  5368709120 cpu:         0.9
 (Enter /home/k0335/k033513/app/g09/l202.exe)
 Symmetry turned off by external request.
 Stoichiometry    C15H11F18N3O4(1+,2)
 Framework group  C1[X(C15H11F18N3O4)]
 Deg. of freedom   147
 Full point group                 C1      NOp   1
                          Input orientation:                          
 ---------------------------------------------------------------------
 Center     Atomic      Atomic             Coordinates (Angstroms)
 Number     Number       Type             X           Y           Z
 ---------------------------------------------------------------------
      1          6           0       -0.240977    6.051319    0.375084
      2          6           0        0.219125    4.907096    1.264097
      3          6           0       -0.009659    3.552459    0.595896
      4          6           0        0.455204    2.402777    1.493919
      5          7           0        0.235537    1.106643    0.849880
      6          6           0        1.257627    0.594439    0.069811
      7          8           0        2.342947    1.153679   -0.058963
      8          7           0        0.986263   -0.591358   -0.561424
      9          6           0        1.942844   -1.076892   -1.543798
     10          9           0        1.338475   -2.079587   -2.254124
     11          9           0        2.108738   -0.095933   -2.470841
     12          6           0        3.315162   -1.616876   -1.039265
     13          9           0        4.049599   -2.048996   -2.113215
     14          8           0        4.131102   -0.722022   -0.285660
     15          6           0        4.977068    0.043634   -1.102782
     16          9           0        5.441249    1.089247   -0.392094
     17          9           0        4.344050    0.500779   -2.193660
     18          9           0        6.029615   -0.708449   -1.479185
     19          6           0        2.997132   -2.832489   -0.171435
     20          9           0        4.130979   -3.420020    0.286617
     21          9           0        2.261960   -2.506315    0.919075
     22          9           0        2.307143   -3.786169   -0.837569
     23          6           0       -0.384260   -0.947770   -0.737792
     24          7           0       -1.131459   -0.763838    0.467695
     25          6           0       -2.453989   -1.381051    0.617601
     26          9           0       -2.744255   -1.365442    1.957055
     27          9           0       -3.365942   -0.577678    0.015838
     28          6           0       -2.664875   -2.865609    0.176656
     29          9           0       -1.431808   -3.481796    0.175905
     30          8           0       -3.398940   -3.661469    1.121068
     31          6           0       -4.776705   -3.384307    1.150804
     32          9           0       -5.371046   -4.027767    0.132789
     33          9           0       -5.006601   -2.069164    1.046215
     34          9           0       -5.287469   -3.833220    2.309351
     35          6           0       -3.205871   -2.884543   -1.257624
     36          9           0       -4.421086   -2.312089   -1.376092
     37          9           0       -3.321312   -4.154278   -1.713968
     38          9           0       -2.382361   -2.234065   -2.113097
     39          6           0       -0.976910    0.466316    1.085584
     40          8           0       -1.842919    0.963395    1.801594
     41          1           0        0.306700    6.056356   -0.572739
     42          1           0       -0.068115    7.010848    0.872397
     43          1           0       -1.310104    5.970928    0.154069
     44          1           0        1.283696    5.034709    1.492273
     45          1           0       -0.324322    4.949709    2.215149
     46          1           0        0.528233    3.515840   -0.359606
     47          1           0       -1.074345    3.430979    0.360835
     48          1           0        1.519925    2.521098    1.727261
     49          1           0       -0.080774    2.435683    2.449712
     50          1           0       -0.817559   -0.330079   -1.533295
     51          1           0       -0.416710   -1.998664   -1.016005
 ---------------------------------------------------------------------
 Rotational constants (GHZ):      0.1302163      0.0595365      0.0465944
 Leave Link  202 at Sun Mar  3 17:32:33 2024, MaxMem=  5368709120 cpu:         0.0
 (Enter /home/k0335/k033513/app/g09/l301.exe)
 Standard basis: 6-31G(d,p) (6D, 7F)
 Ernie: Thresh=  0.10000D-02 Tol=  0.10000D-05 Strict=F.
   655 basis functions,  1197 primitive gaussians,   655 cartesian basis functions
   158 alpha electrons      157 beta electrons
       nuclear repulsion energy      6044.8366445089 Hartrees.
 IExCor=20419 DFT=T Ex+Corr=CAM-B3LYP ExCW=0 ScaHFX=  1.000000
 ScaDFX=  1.000000  1.000000  1.000000  0.810000 ScalE2=  1.000000  1.000000
 IRadAn=      0 IRanWt=     -1 IRanGd=            0 ICorTp=0 IEmpDi=  4
  HFx wShort=  0.000000 wLong=  0.330000 cFull=  0.190000 cShort=  0.000000 cLong=  0.460000
  DFx wShort=  0.000000 wLong=  0.330000 cFull=  0.190000 cShort=  0.000000 cLong=  0.460000
 NAtoms=   51 NActive=   51 NUniq=   51 SFac= 1.00D+00 NAtFMM=   60 NAOKFM=F Big=F
 Integral buffers will be    131072 words long.
 Raffenetti 2 integral format.
 Two-electron integral symmetry is turned off.
 Using the following non-standard input for PCM:
 eps=4.9
 --- end of non-standard input.
 ------------------------------------------------------------------------------
 Polarizable Continuum Model (PCM)
 =================================
 Model                : PCM (using non-symmetric T matrix).
 Atomic radii         : UFF (Universal Force Field).
 Polarization charges : Total charges.
 Charge compensation  : None.
 Solution method      : On-the-fly selection.
 Cavity type          : Scaled VdW (van der Waals Surface) (Alpha=1.100).
 Cavity algorithm     : GePol (No added spheres)
                        Default sphere list used, NSphG=   51.
                        Lebedev-Laikov grids with approx.  5.0 points / Ang**2.
                        Smoothing algorithm: Karplus/York (Gamma=1.0000).
                        Polarization charges: spherical gaussians, with
                                              point-specific exponents (IZeta= 3).
                        Self-potential: point-specific (ISelfS= 7).
                        Self-field    : sphere-specific E.n sum rule (ISelfD= 2).
 Solvent              : Generic,
                        Eps                           =   4.900000
                        Eps(infinity)                 =   0.000000
                        RSolv                         =   0.000000 Ang.
                        Molar volume                  =   0.000000 cm**3/mol
                        Thermal expansion coefficient =   0.000000 K**-1
                        Absolute temperature          = 298.150000 K
                        Numeral density               =   0.000000 Ang**-3
                        Hydrogen bond acidity         =   0.000000
                        Hydrogen bond basicity        =   0.000000
                        Surface tension at interface  =   0.000000 (cal/mol)*Ang**-2
                        Carbon aromaticity            =   0.000000
                        Electronegative halogenicity  =   0.000000
 ------------------------------------------------------------------------------
 GePol: Number of generator spheres                  =      51
 GePol: Total number of spheres                      =      51
 GePol: Number of exposed spheres                    =      51 (100.00%)
 GePol: Number of points                             =    3955
 GePol: Average weight of points                     =       0.13
 GePol: Minimum weight of points                     =   0.17D-11
 GePol: Maximum weight of points                     =    0.20577
 GePol: Number of points with low weight             =     190
 GePol: Fraction of low-weight points (<1% of avg)   =       4.80%
 GePol: Cavity surface area                          =    500.507 Ang**2
 GePol: Cavity volume                                =    574.740 Ang**3
 Leave Link  301 at Sun Mar  3 17:32:33 2024, MaxMem=  5368709120 cpu:         0.7
 (Enter /home/k0335/k033513/app/g09/l302.exe)
 NPDir=0 NMtPBC=     1 NCelOv=     1 NCel=       1 NClECP=     1 NCelD=      1
         NCelK=      1 NCelE2=     1 NClLst=     1 CellRange=     0.0.
 One-electron integrals computed using PRISM.
 NBasis=   655 RedAO= T EigKep=  9.59D-04  NBF=   655
 NBsUse=   655 1.00D-06 EigRej= -1.00D+00 NBFU=   655
 Precomputing XC quadrature grid using
 IXCGrd= 4 IRadAn=           0 IRanWt=          -1 IRanGd=           0 AccXCQ= 0.00D+00.
 Generated NRdTot=       0 NPtTot=           0 NUsed=           0 NTot=          32
 NSgBfM=   630   630   634   634   634 MxSgAt=    51 MxSgA2=    51.
 Leave Link  302 at Sun Mar  3 17:32:34 2024, MaxMem=  5368709120 cpu:        14.4
 (Enter /home/k0335/k033513/app/g09/l303.exe)
 DipDrv:  MaxL=1.
 Leave Link  303 at Sun Mar  3 17:32:34 2024, MaxMem=  5368709120 cpu:         0.9
 (Enter /home/k0335/k033513/app/g09/l401.exe)
 ExpMin= 1.61D-01 ExpMax= 7.00D+03 ExpMxC= 1.05D+03 IAcc=1 IRadAn=         1 AccDes= 0.00D+00
 Harris functional with IExCor=20419 and IRadAn=       1 diagonalized for initial guess.
 HarFok:  IExCor=20419 AccDes= 0.00D+00 IRadAn=         1 IDoV= 1 UseB2=F ITyADJ=14
 ICtDFT=  3500011 ScaDFX=  1.000000  1.000000  1.000000  1.000000
 FoFCou: FMM=F IPFlag=           0 FMFlag=      100000 FMFlg1=           0
         NFxFlg=           0 DoJE=T BraDBF=F KetDBF=T FulRan=T
         wScrn=  0.000000 ICntrl=     500 IOpCl=  0 I1Cent=   200000004 NGrid=           0
         NMat0=    1 NMatS0=      1 NMatT0=    0 NMatD0=    1 NMtDS0=    0 NMtDT0=    0
 Symmetry not used in FoFCou.
 Harris En= -2753.10150380603    
 JPrj=0 DoOrth=F DoCkMO=F.
 Initial guess <Sx>= 0.0000 <Sy>= 0.0000 <Sz>= 0.5000 <S**2>= 0.7500 S= 0.5000
 Leave Link  401 at Sun Mar  3 17:32:35 2024, MaxMem=  5368709120 cpu:        19.3
 (Enter /home/k0335/k033513/app/g09/l502.exe)
 UHF open shell SCF:
 Using DIIS extrapolation, IDIIS=  1040.
 Two-electron integral symmetry not used.
 IVT=     1325377 IEndB=     1325377 NGot=  5368709120 MDV=  5367830064
 LenX=  5367830064 LenY=  5367400384
 Requested convergence on RMS density matrix=1.00D-08 within 128 cycles.
 Requested convergence on MAX density matrix=1.00D-06.
 Requested convergence on             energy=1.00D-06.
 No special actions if energy rises.
 Fock matrices will be formed incrementally for  20 cycles.

 Cycle   1  Pass 1  IDiag  1:
 FoFJK:  IHMeth= 1 ICntrl=       0 DoSepK=T KAlg= 0 I1Cent=   0 FoldK=F
 IRaf=         1 NMat=   1 IRICut=       1 DoRegI=T DoRafI=F ISym2E= 0.
 FoFCou: FMM=F IPFlag=           0 FMFlag=      100000 FMFlg1=           0
         NFxFlg=           0 DoJE=T BraDBF=F KetDBF=F FulRan=T
         wScrn=  0.000000 ICntrl=     500 IOpCl=  0 I1Cent=           0 NGrid=           0
         NMat0=    1 NMatS0=      1 NMatT0=    0 NMatD0=    1 NMtDS0=    0 NMtDT0=    0
 Symmetry not used in FoFCou.
 Inv3:  Mode=1 IEnd=    46926075.
 Iteration    1 A*A^-1 deviation from unit magnitude is 8.55D-15 for   1128.
 Iteration    1 A*A^-1 deviation from orthogonality  is 4.92D-15 for   3643    477.
 Iteration    1 A^-1*A deviation from unit magnitude is 9.99D-15 for   1481.
 Iteration    1 A^-1*A deviation from orthogonality  is 5.35D-11 for   3930   3888.
 E= -2838.30428995065    
 DIIS: error= 6.09D-02 at cycle   1 NSaved=   1.
 NSaved= 1 IEnMin= 1 EnMin= -2838.30428995065     IErMin= 1 ErrMin= 6.09D-02
 ErrMax= 6.09D-02  0.00D+00 EMaxC= 1.00D-01 BMatC= 9.99D+00 BMatP= 9.99D+00
 IDIUse=3 WtCom= 3.91D-01 WtEn= 6.09D-01
 Coeff-Com:  0.100D+01
 Coeff-En:   0.100D+01
 Coeff:      0.100D+01
 Gap=     0.456 Goal=   None    Shift=    0.000
 Gap=     0.120 Goal=   None    Shift=    0.000
 GapD=    0.120 DampG=1.000 DampE=0.500 DampFc=0.5000 IDamp=-1.
 Damping current iteration by 5.00D-01
 RMSDP=3.11D-03 MaxDP=1.56D-01              OVMax= 6.61D-01

 Cycle   2  Pass 1  IDiag  1:
 RMSU=  1.55D-03    CP:  1.00D+00
 E= -2838.80841823508     Delta-E=       -0.504128284430 Rises=F Damp=T
 DIIS: error= 3.50D-02 at cycle   2 NSaved=   2.
 NSaved= 2 IEnMin= 2 EnMin= -2838.80841823508     IErMin= 2 ErrMin= 3.50D-02
 ErrMax= 3.50D-02  0.00D+00 EMaxC= 1.00D-01 BMatC= 1.28D+00 BMatP= 9.99D+00
 IDIUse=3 WtCom= 6.50D-01 WtEn= 3.50D-01
 Coeff-Com: -0.237D+00 0.124D+01
 Coeff-En:   0.000D+00 0.100D+01
 Coeff:     -0.154D+00 0.115D+01
 Gap=     0.579 Goal=   None    Shift=    0.000
 Gap=     0.098 Goal=   None    Shift=    0.000
 RMSDP=1.19D-03 MaxDP=9.86D-02 DE=-5.04D-01 OVMax= 4.99D-01

 Cycle   3  Pass 1  IDiag  1:
 RMSU=  1.17D-03    CP:  9.99D-01  1.12D+00
 E= -2839.15537897783     Delta-E=       -0.346960742749 Rises=F Damp=F
 DIIS: error= 1.26D-02 at cycle   3 NSaved=   3.
 NSaved= 3 IEnMin= 3 EnMin= -2839.15537897783     IErMin= 3 ErrMin= 1.26D-02
 ErrMax= 1.26D-02  0.00D+00 EMaxC= 1.00D-01 BMatC= 9.71D-01 BMatP= 1.28D+00
 IDIUse=3 WtCom= 8.74D-01 WtEn= 1.26D-01
 Coeff-Com: -0.198D+00 0.676D+00 0.522D+00
 Coeff-En:   0.000D+00 0.000D+00 0.100D+01
 Coeff:     -0.173D+00 0.591D+00 0.582D+00
 Gap=     0.414 Goal=   None    Shift=    0.000
 Gap=     0.067 Goal=   None    Shift=    0.000
 RMSDP=9.39D-04 MaxDP=8.20D-02 DE=-3.47D-01 OVMax= 2.99D-01

 Cycle   4  Pass 1  IDiag  1:
 RMSU=  6.09D-04    CP:  9.99D-01  1.35D+00  4.75D-01
 E= -2839.32683869968     Delta-E=       -0.171459721849 Rises=F Damp=F
 DIIS: error= 3.80D-03 at cycle   4 NSaved=   4.
 NSaved= 4 IEnMin= 4 EnMin= -2839.32683869968     IErMin= 4 ErrMin= 3.80D-03
 ErrMax= 3.80D-03  0.00D+00 EMaxC= 1.00D-01 BMatC= 1.84D-01 BMatP= 9.71D-01
 IDIUse=3 WtCom= 9.62D-01 WtEn= 3.80D-02
 Coeff-Com: -0.701D-01 0.179D+00 0.329D+00 0.563D+00
 Coeff-En:   0.000D+00 0.000D+00 0.141D+00 0.859D+00
 Coeff:     -0.675D-01 0.172D+00 0.322D+00 0.574D+00
 Gap=     0.370 Goal=   None    Shift=    0.000
 Gap=     0.095 Goal=   None    Shift=    0.000
 RMSDP=3.57D-04 MaxDP=3.66D-02 DE=-1.71D-01 OVMax= 1.10D-01

 Cycle   5  Pass 1  IDiag  1:
 RMSU=  1.90D-04    CP:  9.98D-01  1.31D+00  6.81D-01  7.25D-01
 E= -2839.36334326492     Delta-E=       -0.036504565240 Rises=F Damp=F
 DIIS: error= 1.09D-03 at cycle   5 NSaved=   5.
 NSaved= 5 IEnMin= 5 EnMin= -2839.36334326492     IErMin= 5 ErrMin= 1.09D-03
 ErrMax= 1.09D-03  0.00D+00 EMaxC= 1.00D-01 BMatC= 1.53D-02 BMatP= 1.84D-01
 IDIUse=3 WtCom= 9.89D-01 WtEn= 1.09D-02
 Coeff-Com: -0.199D-01 0.373D-01 0.978D-01 0.299D+00 0.586D+00
 Coeff-En:   0.000D+00 0.000D+00 0.000D+00 0.000D+00 0.100D+01
 Coeff:     -0.196D-01 0.369D-01 0.967D-01 0.295D+00 0.591D+00
 Gap=     0.365 Goal=   None    Shift=    0.000
 Gap=     0.108 Goal=   None    Shift=    0.000
 RMSDP=1.08D-04 MaxDP=7.46D-03 DE=-3.65D-02 OVMax= 3.77D-02

 Cycle   6  Pass 1  IDiag  1:
 RMSU=  9.43D-05    CP:  9.98D-01  1.33D+00  6.69D-01  7.92D-01  9.83D-01
 E= -2839.36760867185     Delta-E=       -0.004265406928 Rises=F Damp=F
 DIIS: error= 5.37D-04 at cycle   6 NSaved=   6.
 NSaved= 6 IEnMin= 6 EnMin= -2839.36760867185     IErMin= 6 ErrMin= 5.37D-04
 ErrMax= 5.37D-04  0.00D+00 EMaxC= 1.00D-01 BMatC= 1.52D-03 BMatP= 1.53D-02
 IDIUse=3 WtCom= 9.95D-01 WtEn= 5.37D-03
 Coeff-Com:  0.201D-02-0.530D-02-0.442D-01-0.392D-01 0.133D+00 0.954D+00
 Coeff-En:   0.000D+00 0.000D+00 0.000D+00 0.000D+00 0.000D+00 0.100D+01
 Coeff:      0.200D-02-0.528D-02-0.439D-01-0.390D-01 0.132D+00 0.954D+00
 Gap=     0.366 Goal=   None    Shift=    0.000
 Gap=     0.118 Goal=   None    Shift=    0.000
 RMSDP=8.88D-05 MaxDP=8.00D-03 DE=-4.27D-03 OVMax= 3.77D-02

 Cycle   7  Pass 1  IDiag  1:
 RMSU=  3.98D-05    CP:  9.98D-01  1.33D+00  6.69D-01  8.16D-01  1.27D+00
                    CP:  1.56D+00
 E= -2839.36924639748     Delta-E=       -0.001637725632 Rises=F Damp=F
 DIIS: error= 3.19D-04 at cycle   7 NSaved=   7.
 NSaved= 7 IEnMin= 7 EnMin= -2839.36924639748     IErMin= 7 ErrMin= 3.19D-04
 ErrMax= 3.19D-04  0.00D+00 EMaxC= 1.00D-01 BMatC= 3.32D-04 BMatP= 1.52D-03
 IDIUse=3 WtCom= 9.97D-01 WtEn= 3.19D-03
 Coeff-Com:  0.386D-02-0.653D-02-0.335D-01-0.721D-01-0.580D-01 0.187D+00
 Coeff-Com:  0.979D+00
 Coeff-En:   0.000D+00 0.000D+00 0.000D+00 0.000D+00 0.000D+00 0.000D+00
 Coeff-En:   0.100D+01
 Coeff:      0.385D-02-0.650D-02-0.334D-01-0.719D-01-0.578D-01 0.187D+00
 Coeff:      0.979D+00
 Gap=     0.367 Goal=   None    Shift=    0.000
 Gap=     0.123 Goal=   None    Shift=    0.000
 RMSDP=7.21D-05 MaxDP=1.02D-02 DE=-1.64D-03 OVMax= 3.25D-02

 Cycle   8  Pass 1  IDiag  1:
 RMSU=  2.92D-05    CP:  9.98D-01  1.34D+00  6.65D-01  8.20D-01  1.46D+00
                    CP:  2.07D+00  1.66D+00
 E= -2839.37009745156     Delta-E=       -0.000851054077 Rises=F Damp=F
 DIIS: error= 2.43D-04 at cycle   8 NSaved=   8.
 NSaved= 8 IEnMin= 8 EnMin= -2839.37009745156     IErMin= 8 ErrMin= 2.43D-04
 ErrMax= 2.43D-04  0.00D+00 EMaxC= 1.00D-01 BMatC= 3.41D-04 BMatP= 3.32D-04
 IDIUse=3 WtCom= 9.98D-01 WtEn= 2.43D-03
 Coeff-Com:  0.148D-03 0.986D-03 0.325D-02-0.143D-01-0.393D-01-0.294D+00
 Coeff-Com:  0.634D+00 0.709D+00
 Coeff-En:   0.000D+00 0.000D+00 0.000D+00 0.000D+00 0.000D+00 0.000D+00
 Coeff-En:   0.000D+00 0.100D+01
 Coeff:      0.148D-03 0.983D-03 0.324D-02-0.143D-01-0.392D-01-0.293D+00
 Coeff:      0.633D+00 0.709D+00
 Gap=     0.367 Goal=   None    Shift=    0.000
 Gap=     0.125 Goal=   None    Shift=    0.000
 RMSDP=4.92D-05 MaxDP=5.69D-03 DE=-8.51D-04 OVMax= 2.46D-02

 Cycle   9  Pass 1  IDiag  1:
 RMSU=  1.29D-05    CP:  9.97D-01  1.34D+00  6.63D-01  8.19D-01  1.55D+00
                    CP:  2.36D+00  2.39D+00  1.63D+00
 E= -2839.37057405520     Delta-E=       -0.000476603647 Rises=F Damp=F
 DIIS: error= 2.34D-04 at cycle   9 NSaved=   9.
 NSaved= 9 IEnMin= 9 EnMin= -2839.37057405520     IErMin= 9 ErrMin= 2.34D-04
 ErrMax= 2.34D-04  0.00D+00 EMaxC= 1.00D-01 BMatC= 1.47D-04 BMatP= 3.32D-04
 IDIUse=3 WtCom= 9.98D-01 WtEn= 2.34D-03
 Coeff-Com: -0.151D-02 0.291D-02 0.196D-01 0.256D-01 0.318D-01-0.300D+00
 Coeff-Com:  0.594D-01-0.997D-01 0.126D+01
 Coeff-En:   0.000D+00 0.000D+00 0.000D+00 0.000D+00 0.000D+00 0.000D+00
 Coeff-En:   0.000D+00 0.000D+00 0.100D+01
 Coeff:     -0.151D-02 0.290D-02 0.195D-01 0.255D-01 0.317D-01-0.299D+00
 Coeff:      0.593D-01-0.995D-01 0.126D+01
 Gap=     0.368 Goal=   None    Shift=    0.000
 Gap=     0.127 Goal=   None    Shift=    0.000
 RMSDP=6.54D-05 MaxDP=8.23D-03 DE=-4.77D-04 OVMax= 4.29D-02

 Cycle  10  Pass 1  IDiag  1:
 RMSU=  1.85D-05    CP:  9.97D-01  1.35D+00  6.57D-01  8.17D-01  1.65D+00
                    CP:  2.66D+00  3.00D+00  2.87D+00  2.18D+00
 E= -2839.37106644891     Delta-E=       -0.000492393705 Rises=F Damp=F
 DIIS: error= 1.79D-04 at cycle  10 NSaved=  10.
 NSaved=10 IEnMin=10 EnMin= -2839.37106644891     IErMin=10 ErrMin= 1.79D-04
 ErrMax= 1.79D-04  0.00D+00 EMaxC= 1.00D-01 BMatC= 2.06D-04 BMatP= 1.47D-04
 IDIUse=3 WtCom= 9.98D-01 WtEn= 2.34D-03
 Coeff-Com:  0.568D-04-0.611D-03 0.655D-02 0.974D-02 0.521D-01-0.363D-01
 Coeff-Com: -0.564D-01-0.800D+00 0.107D+01 0.753D+00
 Coeff-En:   0.000D+00 0.000D+00 0.000D+00 0.000D+00 0.000D+00 0.000D+00
 Coeff-En:   0.000D+00 0.000D+00 0.000D+00 0.100D+01
 Coeff:      0.566D-04-0.610D-03 0.654D-02 0.972D-02 0.520D-01-0.362D-01
 Coeff:     -0.563D-01-0.798D+00 0.107D+01 0.754D+00
 Gap=     0.368 Goal=   None    Shift=    0.000
 Gap=     0.129 Goal=   None    Shift=    0.000
 RMSDP=5.00D-05 MaxDP=4.92D-03 DE=-4.92D-04 OVMax= 3.51D-02

 Cycle  11  Pass 1  IDiag  1:
 RMSU=  3.00D-05    CP:  9.97D-01  1.35D+00  6.52D-01  8.13D-01  1.70D+00
                    CP:  2.82D+00  3.00D+00  3.00D+00  3.00D+00  2.45D+00
 E= -2839.37141192777     Delta-E=       -0.000345478862 Rises=F Damp=F
 DIIS: error= 1.65D-04 at cycle  11 NSaved=  11.
 NSaved=11 IEnMin=11 EnMin= -2839.37141192777     IErMin=11 ErrMin= 1.65D-04
 ErrMax= 1.65D-04  0.00D+00 EMaxC= 1.00D-01 BMatC= 1.45D-04 BMatP= 1.47D-04
 IDIUse=3 WtCom= 9.98D-01 WtEn= 1.65D-03
 Coeff-Com:  0.653D-03-0.145D-02 0.172D-02-0.157D-02 0.347D-01 0.197D-01
 Coeff-Com:  0.731D-01-0.582D+00 0.473D+00-0.300D+00 0.128D+01
 Coeff-En:   0.000D+00 0.000D+00 0.000D+00 0.000D+00 0.000D+00 0.000D+00
 Coeff-En:   0.000D+00 0.000D+00 0.000D+00 0.000D+00 0.100D+01
 Coeff:      0.652D-03-0.144D-02 0.172D-02-0.157D-02 0.347D-01 0.196D-01
 Coeff:      0.730D-01-0.581D+00 0.472D+00-0.299D+00 0.128D+01
 Gap=     0.368 Goal=   None    Shift=    0.000
 Gap=     0.129 Goal=   None    Shift=    0.000
 RMSDP=5.21D-05 MaxDP=4.13D-03 DE=-3.45D-04 OVMax= 3.89D-02

 Cycle  12  Pass 1  IDiag  1:
 RMSU=  2.44D-05    CP:  9.97D-01  1.35D+00  6.45D-01  8.06D-01  1.73D+00
                    CP:  2.94D+00  3.00D+00  3.00D+00  3.00D+00  3.00D+00
                    CP:  2.23D+00
 E= -2839.37173873972     Delta-E=       -0.000326811945 Rises=F Damp=F
 DIIS: error= 1.43D-04 at cycle  12 NSaved=  12.
 NSaved=12 IEnMin=12 EnMin= -2839.37173873972     IErMin=12 ErrMin= 1.43D-04
 ErrMax= 1.43D-04  0.00D+00 EMaxC= 1.00D-01 BMatC= 1.30D-04 BMatP= 1.45D-04
 IDIUse=3 WtCom= 9.99D-01 WtEn= 1.43D-03
 Coeff-Com:  0.404D-03-0.568D-03 0.689D-02-0.142D-02-0.929D-02-0.153D+00
 Coeff-Com:  0.268D+00 0.270D+00 0.489D-02-0.179D+01 0.777D+00 0.163D+01
 Coeff-En:   0.000D+00 0.000D+00 0.000D+00 0.000D+00 0.000D+00 0.000D+00
 Coeff-En:   0.000D+00 0.000D+00 0.000D+00 0.000D+00 0.000D+00 0.100D+01
 Coeff:      0.403D-03-0.567D-03 0.688D-02-0.142D-02-0.928D-02-0.153D+00
 Coeff:      0.267D+00 0.269D+00 0.488D-02-0.179D+01 0.775D+00 0.163D+01
 Gap=     0.368 Goal=   None    Shift=    0.000
 Gap=     0.130 Goal=   None    Shift=    0.000
 RMSDP=8.92D-05 MaxDP=6.61D-03 DE=-3.27D-04 OVMax= 6.76D-02

 Cycle  13  Pass 1  IDiag  1:
 RMSU=  4.19D-05    CP:  9.97D-01  1.35D+00  6.32D-01  7.88D-01  1.78D+00
                    CP:  3.00D+00  3.00D+00  3.00D+00  3.00D+00  3.00D+00
                    CP:  3.00D+00  3.00D+00
 E= -2839.37223984976     Delta-E=       -0.000501110042 Rises=F Damp=F
 DIIS: error= 1.19D-04 at cycle  13 NSaved=  13.
 NSaved=13 IEnMin=13 EnMin= -2839.37223984976     IErMin=13 ErrMin= 1.19D-04
 ErrMax= 1.19D-04  0.00D+00 EMaxC= 1.00D-01 BMatC= 8.50D-05 BMatP= 1.30D-04
 IDIUse=3 WtCom= 9.99D-01 WtEn= 1.19D-03
 Coeff-Com: -0.115D-03 0.421D-03 0.990D-02 0.352D-02-0.151D-01-0.213D+00
 Coeff-Com:  0.197D+00 0.560D+00 0.718D-02-0.134D+01-0.457D+00 0.101D+01
 Coeff-Com:  0.124D+01
 Coeff-En:   0.000D+00 0.000D+00 0.000D+00 0.000D+00 0.000D+00 0.000D+00
 Coeff-En:   0.000D+00 0.000D+00 0.000D+00 0.000D+00 0.000D+00 0.000D+00
 Coeff-En:   0.100D+01
 Coeff:     -0.115D-03 0.420D-03 0.989D-02 0.351D-02-0.151D-01-0.213D+00
 Coeff:      0.197D+00 0.559D+00 0.717D-02-0.134D+01-0.457D+00 0.101D+01
 Coeff:      0.124D+01
 Gap=     0.368 Goal=   None    Shift=    0.000
 Gap=     0.133 Goal=   None    Shift=    0.000
 RMSDP=9.78D-05 MaxDP=7.16D-03 DE=-5.01D-04 OVMax= 7.40D-02

 Cycle  14  Pass 1  IDiag  1:
 RMSU=  4.95D-05    CP:  9.97D-01  1.36D+00  6.18D-01  7.59D-01  1.81D+00
                    CP:  3.00D+00  3.00D+00  3.00D+00  3.00D+00  3.00D+00
                    CP:  3.00D+00  3.00D+00  2.91D+00
 E= -2839.37269528817     Delta-E=       -0.000455438416 Rises=F Damp=F
 DIIS: error= 1.05D-04 at cycle  14 NSaved=  14.
 NSaved=14 IEnMin=14 EnMin= -2839.37269528817     IErMin=14 ErrMin= 1.05D-04
 ErrMax= 1.05D-04  0.00D+00 EMaxC= 1.00D-01 BMatC= 4.45D-05 BMatP= 8.50D-05
 IDIUse=3 WtCom= 9.99D-01 WtEn= 1.05D-03
 Coeff-Com: -0.380D-03 0.757D-03 0.528D-02 0.399D-02 0.176D-01-0.642D-01
 Coeff-Com: -0.315D-01 0.206D+00 0.634D-01 0.228D+00-0.568D+00-0.504D+00
 Coeff-Com:  0.584D+00 0.106D+01
 Coeff-En:   0.000D+00 0.000D+00 0.000D+00 0.000D+00 0.000D+00 0.000D+00
 Coeff-En:   0.000D+00 0.000D+00 0.000D+00 0.000D+00 0.000D+00 0.000D+00
 Coeff-En:   0.000D+00 0.100D+01
 Coeff:     -0.379D-03 0.757D-03 0.528D-02 0.399D-02 0.176D-01-0.641D-01
 Coeff:     -0.315D-01 0.206D+00 0.634D-01 0.228D+00-0.567D+00-0.503D+00
 Coeff:      0.584D+00 0.106D+01
 Gap=     0.366 Goal=   None    Shift=    0.000
 Gap=     0.132 Goal=   None    Shift=    0.000
 RMSDP=5.58D-05 MaxDP=3.86D-03 DE=-4.55D-04 OVMax= 4.29D-02

 Cycle  15  Pass 1  IDiag  1:
 RMSU=  4.01D-05    CP:  9.97D-01  1.36D+00  6.08D-01  7.37D-01  1.81D+00
                    CP:  3.00D+00  3.00D+00  3.00D+00  3.00D+00  3.00D+00
                    CP:  3.00D+00  3.00D+00  3.00D+00  1.60D+00
 E= -2839.37291417205     Delta-E=       -0.000218883875 Rises=F Damp=F
 DIIS: error= 8.30D-05 at cycle  15 NSaved=  15.
 NSaved=15 IEnMin=15 EnMin= -2839.37291417205     IErMin=15 ErrMin= 8.30D-05
 ErrMax= 8.30D-05  0.00D+00 EMaxC= 1.00D-01 BMatC= 4.21D-05 BMatP= 4.45D-05
 IDIUse=1 WtCom= 1.00D+00 WtEn= 0.00D+00
 Coeff-Com: -0.257D-03 0.446D-03-0.873D-04 0.639D-03 0.296D-01 0.436D-01
 Coeff-Com: -0.132D+00-0.829D-01-0.628D-02 0.798D+00-0.121D+00-0.924D+00
 Coeff-Com: -0.685D+00 0.110D+01 0.980D+00
 Coeff:     -0.257D-03 0.446D-03-0.873D-04 0.639D-03 0.296D-01 0.436D-01
 Coeff:     -0.132D+00-0.829D-01-0.628D-02 0.798D+00-0.121D+00-0.924D+00
 Coeff:     -0.685D+00 0.110D+01 0.980D+00
 Gap=     0.363 Goal=   None    Shift=    0.000
 Gap=     0.134 Goal=   None    Shift=    0.000
 RMSDP=1.04D-04 MaxDP=7.36D-03 DE=-2.19D-04 OVMax= 7.93D-02

 Cycle  16  Pass 1  IDiag  1:
 RMSU=  1.86D-05    CP:  9.96D-01  1.36D+00  5.91D-01  6.88D-01  1.82D+00
                    CP:  3.00D+00  3.00D+00  3.00D+00  3.00D+00  3.00D+00
                    CP:  3.00D+00  3.00D+00  3.00D+00  2.69D+00  2.97D+00
 E= -2839.37322007114     Delta-E=       -0.000305899088 Rises=F Damp=F
 DIIS: error= 6.60D-05 at cycle  16 NSaved=  16.
 NSaved=16 IEnMin=16 EnMin= -2839.37322007114     IErMin=16 ErrMin= 6.60D-05
 ErrMax= 6.60D-05  0.00D+00 EMaxC= 1.00D-01 BMatC= 2.89D-05 BMatP= 4.21D-05
 IDIUse=1 WtCom= 1.00D+00 WtEn= 0.00D+00
 Coeff-Com:  0.323D-03-0.622D-03-0.395D-02-0.672D-02 0.141D-01 0.596D-01
 Coeff-Com: -0.224D-01-0.400D-01-0.253D+00 0.558D-01 0.791D+00 0.130D-01
 Coeff-Com: -0.103D+01-0.282D+00 0.732D+00 0.970D+00
 Coeff:      0.323D-03-0.622D-03-0.395D-02-0.672D-02 0.141D-01 0.596D-01
 Coeff:     -0.224D-01-0.400D-01-0.253D+00 0.558D-01 0.791D+00 0.130D-01
 Coeff:     -0.103D+01-0.282D+00 0.732D+00 0.970D+00
 Gap=     0.362 Goal=   None    Shift=    0.000
 Gap=     0.132 Goal=   None    Shift=    0.000
 RMSDP=2.77D-05 MaxDP=2.43D-03 DE=-3.06D-04 OVMax= 2.00D-02

 Cycle  17  Pass 1  IDiag  1:
 RMSU=  2.08D-05    CP:  9.96D-01  1.36D+00  5.86D-01  6.74D-01  1.82D+00
                    CP:  3.00D+00  3.00D+00  3.00D+00  3.00D+00  3.00D+00
                    CP:  3.00D+00  3.00D+00  3.00D+00  2.96D+00  3.00D+00
                    CP:  8.74D-01
 E= -2839.37328740133     Delta-E=       -0.000067330197 Rises=F Damp=F
 DIIS: error= 5.49D-05 at cycle  17 NSaved=  17.
 NSaved=17 IEnMin=17 EnMin= -2839.37328740133     IErMin=17 ErrMin= 5.49D-05
 ErrMax= 5.49D-05  0.00D+00 EMaxC= 1.00D-01 BMatC= 2.23D-05 BMatP= 2.89D-05
 IDIUse=1 WtCom= 1.00D+00 WtEn= 0.00D+00
 Coeff-Com:  0.305D-03-0.522D-03-0.229D-02-0.549D-02-0.390D-02 0.534D-02
 Coeff-Com:  0.857D-01 0.806D-02-0.149D+00-0.584D+00 0.693D+00 0.599D+00
 Coeff-Com: -0.697D+00-0.580D+00-0.326D+00 0.710D+00 0.125D+01
 Coeff:      0.305D-03-0.522D-03-0.229D-02-0.549D-02-0.390D-02 0.534D-02
 Coeff:      0.857D-01 0.806D-02-0.149D+00-0.584D+00 0.693D+00 0.599D+00
 Coeff:     -0.697D+00-0.580D+00-0.326D+00 0.710D+00 0.125D+01
 Gap=     0.357 Goal=   None    Shift=    0.000
 Gap=     0.136 Goal=   None    Shift=    0.000
 RMSDP=1.13D-04 MaxDP=8.47D-03 DE=-6.73D-05 OVMax= 8.52D-02

 Cycle  18  Pass 1  IDiag  1:
 RMSU=  7.11D-05    CP:  9.96D-01  1.36D+00  5.68D-01  6.07D-01  1.82D+00
                    CP:  3.00D+00  3.00D+00  3.00D+00  3.00D+00  3.00D+00
                    CP:  3.00D+00  3.00D+00  3.00D+00  3.00D+00  3.00D+00
                    CP:  2.29D+00  3.00D+00
 E= -2839.37342287257     Delta-E=       -0.000135471239 Rises=F Damp=F
 DIIS: error= 8.59D-05 at cycle  18 NSaved=  18.
 NSaved=18 IEnMin=18 EnMin= -2839.37342287257     IErMin=17 ErrMin= 5.49D-05
 ErrMax= 8.59D-05  0.00D+00 EMaxC= 1.00D-01 BMatC= 5.08D-05 BMatP= 2.23D-05
 IDIUse=1 WtCom= 1.00D+00 WtEn= 0.00D+00
 Coeff-Com:  0.545D-04-0.478D-04 0.102D-02-0.993D-03-0.959D-02-0.391D-01
 Coeff-Com:  0.781D-01 0.103D+00-0.447D-01-0.585D+00 0.108D+00 0.564D+00
 Coeff-Com:  0.314D+00-0.469D+00-0.496D+00-0.376D+00 0.118D+01 0.677D+00
 Coeff:      0.545D-04-0.478D-04 0.102D-02-0.993D-03-0.959D-02-0.391D-01
 Coeff:      0.781D-01 0.103D+00-0.447D-01-0.585D+00 0.108D+00 0.564D+00
 Coeff:      0.314D+00-0.469D+00-0.496D+00-0.376D+00 0.118D+01 0.677D+00
 Gap=     0.357 Goal=   None    Shift=    0.000
 Gap=     0.136 Goal=   None    Shift=    0.000
 RMSDP=9.80D-06 MaxDP=1.12D-03 DE=-1.35D-04 OVMax= 3.64D-03

 Cycle  19  Pass 1  IDiag  1:
 RMSU=  9.13D-06    CP:  9.96D-01  1.37D+00  5.67D-01  6.04D-01  1.82D+00
                    CP:  3.00D+00  3.00D+00  3.00D+00  3.00D+00  3.00D+00
                    CP:  3.00D+00  3.00D+00  3.00D+00  3.00D+00  3.00D+00
                    CP:  2.19D+00  3.00D+00  1.02D+00
 E= -2839.37344250048     Delta-E=       -0.000019627905 Rises=F Damp=F
 DIIS: error= 2.93D-05 at cycle  19 NSaved=  19.
 NSaved=19 IEnMin=19 EnMin= -2839.37344250048     IErMin=19 ErrMin= 2.93D-05
 ErrMax= 2.93D-05  0.00D+00 EMaxC= 1.00D-01 BMatC= 4.86D-06 BMatP= 2.23D-05
 IDIUse=1 WtCom= 1.00D+00 WtEn= 0.00D+00
 Coeff-Com: -0.361D-04 0.766D-04 0.779D-03 0.174D-03-0.232D-02-0.157D-01
 Coeff-Com:  0.106D-01 0.526D-01 0.404D-02-0.102D+00-0.132D+00 0.696D-01
 Coeff-Com:  0.355D+00-0.339D-01-0.130D+00-0.613D+00 0.354D+00 0.295D+00
 Coeff-Com:  0.888D+00
 Coeff:     -0.361D-04 0.766D-04 0.779D-03 0.174D-03-0.232D-02-0.157D-01
 Coeff:      0.106D-01 0.526D-01 0.404D-02-0.102D+00-0.132D+00 0.696D-01
 Coeff:      0.355D+00-0.339D-01-0.130D+00-0.613D+00 0.354D+00 0.295D+00
 Coeff:      0.888D+00
 Gap=     0.357 Goal=   None    Shift=    0.000
 Gap=     0.134 Goal=   None    Shift=    0.000
 RMSDP=1.20D-05 MaxDP=1.37D-03 DE=-1.96D-05 OVMax= 8.00D-03

 Cycle  20  Pass 1  IDiag  1:
 RMSU=  2.25D-06    CP:  9.96D-01  1.37D+00  5.65D-01  5.96D-01  1.82D+00
                    CP:  3.00D+00  3.00D+00  3.00D+00  3.00D+00  3.00D+00
                    CP:  3.00D+00  3.00D+00  3.00D+00  3.00D+00  3.00D+00
                    CP:  2.20D+00  3.00D+00  1.12D+00  1.86D+00
 E= -2839.37344869629     Delta-E=       -0.000006195813 Rises=F Damp=F
 DIIS: error= 1.21D-05 at cycle  20 NSaved=  20.
 NSaved=20 IEnMin=20 EnMin= -2839.37344869629     IErMin=20 ErrMin= 1.21D-05
 ErrMax= 1.21D-05  0.00D+00 EMaxC= 1.00D-01 BMatC= 1.15D-06 BMatP= 4.86D-06
 IDIUse=1 WtCom= 1.00D+00 WtEn= 0.00D+00
 Coeff-Com: -0.204D-04 0.286D-04-0.206D-03-0.146D-03 0.286D-02 0.709D-02
 Coeff-Com: -0.217D-01-0.106D-01 0.151D-01 0.161D+00-0.114D+00-0.171D+00
 Coeff-Com: -0.171D-02 0.242D+00 0.102D+00-0.174D+00-0.276D+00-0.325D-01
 Coeff-Com:  0.318D+00 0.953D+00
 Coeff:     -0.204D-04 0.286D-04-0.206D-03-0.146D-03 0.286D-02 0.709D-02
 Coeff:     -0.217D-01-0.106D-01 0.151D-01 0.161D+00-0.114D+00-0.171D+00
 Coeff:     -0.171D-02 0.242D+00 0.102D+00-0.174D+00-0.276D+00-0.325D-01
 Coeff:      0.318D+00 0.953D+00
 Gap=     0.357 Goal=   None    Shift=    0.000
 Gap=     0.135 Goal=   None    Shift=    0.000
 RMSDP=1.50D-05 MaxDP=1.23D-03 DE=-6.20D-06 OVMax= 1.11D-02

 Cycle  21  Pass 1  IDiag  1:
 Restarting incremental Fock formation.
 E= -2839.37345115186     Delta-E=       -0.000002455568 Rises=F Damp=F
 DIIS: error= 8.01D-06 at cycle  21 NSaved=  20.
 NSaved=20 IEnMin=20 EnMin= -2839.37345115186     IErMin=20 ErrMin= 8.01D-06
 ErrMax= 8.01D-06  0.00D+00 EMaxC= 1.00D-01 BMatC= 4.87D-07 BMatP= 1.15D-06
 IDIUse=1 WtCom= 1.00D+00 WtEn= 0.00D+00
 Coeff-Com:  0.155D-05-0.216D-03-0.714D-04 0.370D-03 0.291D-02-0.443D-02
 Coeff-Com: -0.196D-02-0.834D-02 0.447D-01-0.119D-01-0.156D-01-0.528D-01
 Coeff-Com:  0.377D-01 0.364D-01 0.739D-01-0.819D-01-0.108D+00-0.797D-01
 Coeff-Com:  0.173D+00 0.996D+00
 Coeff:      0.155D-05-0.216D-03-0.714D-04 0.370D-03 0.291D-02-0.443D-02
 Coeff:     -0.196D-02-0.834D-02 0.447D-01-0.119D-01-0.156D-01-0.528D-01
 Coeff:      0.377D-01 0.364D-01 0.739D-01-0.819D-01-0.108D+00-0.797D-01
 Coeff:      0.173D+00 0.996D+00
 Gap=     0.357 Goal=   None    Shift=    0.000
 Gap=     0.135 Goal=   None    Shift=    0.000
 RMSDP=2.83D-06 MaxDP=3.24D-04 DE=-2.46D-06 OVMax= 1.70D-03

 Cycle  22  Pass 1  IDiag  1:
 RMSU=  2.83D-06    CP:  1.00D+00
 E= -2839.37345155756     Delta-E=       -0.000000405702 Rises=F Damp=F
 DIIS: error= 6.13D-06 at cycle  22 NSaved=  20.
 NSaved=20 IEnMin=20 EnMin= -2839.37345155756     IErMin=20 ErrMin= 6.13D-06
 ErrMax= 6.13D-06  0.00D+00 EMaxC= 1.00D-01 BMatC= 1.37D-07 BMatP= 4.87D-07
 IDIUse=1 WtCom= 1.00D+00 WtEn= 0.00D+00
 Coeff-Com: -0.269D-05 0.149D-03-0.677D-03-0.796D-03 0.357D-02-0.669D-03
 Coeff-Com: -0.603D-02-0.188D-01 0.209D-01 0.478D-01-0.435D-01-0.369D-01
 Coeff-Com: -0.285D-01 0.115D+00 0.266D-01-0.329D-01-0.184D+00-0.177D+00
 Coeff-Com:  0.453D+00 0.864D+00
 Coeff:     -0.269D-05 0.149D-03-0.677D-03-0.796D-03 0.357D-02-0.669D-03
 Coeff:     -0.603D-02-0.188D-01 0.209D-01 0.478D-01-0.435D-01-0.369D-01
 Coeff:     -0.285D-01 0.115D+00 0.266D-01-0.329D-01-0.184D+00-0.177D+00
 Coeff:      0.453D+00 0.864D+00
 Gap=     0.357 Goal=   None    Shift=    0.000
 Gap=     0.135 Goal=   None    Shift=    0.000
 RMSDP=2.24D-06 MaxDP=2.13D-04 DE=-4.06D-07 OVMax= 1.42D-03

 Cycle  23  Pass 1  IDiag  1:
 RMSU=  2.03D-06    CP:  1.00D+00  6.63D-01
 E= -2839.37345185732     Delta-E=       -0.000000299757 Rises=F Damp=F
 DIIS: error= 5.37D-06 at cycle  23 NSaved=  20.
 NSaved=20 IEnMin=20 EnMin= -2839.37345185732     IErMin=20 ErrMin= 5.37D-06
 ErrMax= 5.37D-06  0.00D+00 EMaxC= 1.00D-01 BMatC= 4.17D-08 BMatP= 1.37D-07
 IDIUse=1 WtCom= 1.00D+00 WtEn= 0.00D+00
 Coeff-Com: -0.603D-04-0.953D-04 0.129D-02 0.449D-03 0.651D-04-0.342D-03
 Coeff-Com: -0.272D-02-0.102D-02 0.820D-02 0.148D-01-0.159D-01-0.986D-02
 Coeff-Com: -0.219D-01 0.240D-01 0.652D-01 0.258D-02-0.788D-01-0.463D+00
 Coeff-Com:  0.270D-01 0.145D+01
 Coeff:     -0.603D-04-0.953D-04 0.129D-02 0.449D-03 0.651D-04-0.342D-03
 Coeff:     -0.272D-02-0.102D-02 0.820D-02 0.148D-01-0.159D-01-0.986D-02
 Coeff:     -0.219D-01 0.240D-01 0.652D-01 0.258D-02-0.788D-01-0.463D+00
 Coeff:      0.270D-01 0.145D+01
 Gap=     0.357 Goal=   None    Shift=    0.000
 Gap=     0.135 Goal=   None    Shift=    0.000
 RMSDP=2.39D-06 MaxDP=3.56D-04 DE=-3.00D-07 OVMax= 1.24D-03

 Cycle  24  Pass 1  IDiag  1:
 RMSU=  8.04D-07    CP:  1.00D+00  1.44D+00  1.25D+00
 E= -2839.37345206304     Delta-E=       -0.000000205719 Rises=F Damp=F
 DIIS: error= 4.71D-06 at cycle  24 NSaved=  20.
 NSaved=20 IEnMin=20 EnMin= -2839.37345206304     IErMin=20 ErrMin= 4.71D-06
 ErrMax= 4.71D-06  0.00D+00 EMaxC= 1.00D-01 BMatC= 2.23D-07 BMatP= 4.17D-08
 IDIUse=1 WtCom= 1.00D+00 WtEn= 0.00D+00
 Coeff-Com:  0.910D-03 0.197D-02-0.411D-02-0.865D-02 0.842D-02 0.249D-01
 Coeff-Com: -0.154D-01-0.306D-01 0.493D-02 0.474D-01 0.149D-02-0.421D-01
 Coeff-Com: -0.503D-01 0.553D-01 0.630D-01 0.731D-01-0.274D+00-0.605D+00
 Coeff-Com:  0.483D+00 0.127D+01
 Coeff:      0.910D-03 0.197D-02-0.411D-02-0.865D-02 0.842D-02 0.249D-01
 Coeff:     -0.154D-01-0.306D-01 0.493D-02 0.474D-01 0.149D-02-0.421D-01
 Coeff:     -0.503D-01 0.553D-01 0.630D-01 0.731D-01-0.274D+00-0.605D+00
 Coeff:      0.483D+00 0.127D+01
 Gap=     0.357 Goal=   None    Shift=    0.000
 Gap=     0.135 Goal=   None    Shift=    0.000
 RMSDP=3.37D-06 MaxDP=2.77D-04 DE=-2.06D-07 OVMax= 2.14D-03

 Cycle  25  Pass 1  IDiag  1:
 RMSU=  2.66D-07    CP:  1.00D+00  8.72D-01  2.69D+00  1.47D+00
 E= -2839.37345235989     Delta-E=       -0.000000296855 Rises=F Damp=F
 DIIS: error= 3.46D-06 at cycle  25 NSaved=  20.
 NSaved=20 IEnMin=20 EnMin= -2839.37345235989     IErMin=20 ErrMin= 3.46D-06
 ErrMax= 3.46D-06  0.00D+00 EMaxC= 1.00D-01 BMatC= 4.29D-08 BMatP= 4.17D-08
 IDIUse=1 WtCom= 1.00D+00 WtEn= 0.00D+00
 Coeff-Com: -0.115D-02-0.395D-03 0.438D-02-0.129D-02 0.623D-02-0.116D-01
 Coeff-Com: -0.597D-02 0.123D-01 0.139D-01 0.854D-02-0.254D-01-0.213D-01
 Coeff-Com: -0.147D-01 0.511D-01 0.831D-01 0.128D+00-0.386D+00-0.787D+00
 Coeff-Com:  0.547D+00 0.140D+01
 Coeff:     -0.115D-02-0.395D-03 0.438D-02-0.129D-02 0.623D-02-0.116D-01
 Coeff:     -0.597D-02 0.123D-01 0.139D-01 0.854D-02-0.254D-01-0.213D-01
 Coeff:     -0.147D-01 0.511D-01 0.831D-01 0.128D+00-0.386D+00-0.787D+00
 Coeff:      0.547D+00 0.140D+01
 Gap=     0.357 Goal=   None    Shift=    0.000
 Gap=     0.135 Goal=   None    Shift=    0.000
 RMSDP=2.87D-06 MaxDP=4.16D-04 DE=-2.97D-07 OVMax= 1.76D-03

 Cycle  26  Pass 1  IDiag  1:
 RMSU=  5.62D-07    CP:  1.00D+00  1.72D+00  3.00D+00  2.75D+00  1.86D+00
 E= -2839.37345254351     Delta-E=       -0.000000183614 Rises=F Damp=F
 DIIS: error= 2.68D-06 at cycle  26 NSaved=  20.
 NSaved=20 IEnMin=20 EnMin= -2839.37345254351     IErMin=20 ErrMin= 2.68D-06
 ErrMax= 2.68D-06  0.00D+00 EMaxC= 1.00D-01 BMatC= 6.56D-08 BMatP= 4.17D-08
 IDIUse=1 WtCom= 1.00D+00 WtEn= 0.00D+00
 Coeff-Com: -0.486D-03-0.166D-02 0.183D-02 0.325D-02-0.394D-02-0.353D-02
 Coeff-Com: -0.159D-02 0.153D-01 0.190D-03-0.211D-02-0.210D-01 0.353D-02
 Coeff-Com: -0.946D-02 0.667D-01 0.999D-01-0.132D+00-0.377D+00-0.267D-01
 Coeff-Com:  0.422D+00 0.967D+00
 Coeff:     -0.486D-03-0.166D-02 0.183D-02 0.325D-02-0.394D-02-0.353D-02
 Coeff:     -0.159D-02 0.153D-01 0.190D-03-0.211D-02-0.210D-01 0.353D-02
 Coeff:     -0.946D-02 0.667D-01 0.999D-01-0.132D+00-0.377D+00-0.267D-01
 Coeff:      0.422D+00 0.967D+00
 Gap=     0.357 Goal=   None    Shift=    0.000
 Gap=     0.135 Goal=   None    Shift=    0.000
 RMSDP=1.67D-06 MaxDP=1.32D-04 DE=-1.84D-07 OVMax= 9.02D-04

 Cycle  27  Pass 1  IDiag  1:
 RMSU=  6.37D-07    CP:  1.00D+00  1.54D+00  3.00D+00  3.00D+00  2.70D+00
                    CP:  3.00D+00
 E= -2839.37345261515     Delta-E=       -0.000000071645 Rises=F Damp=F
 DIIS: error= 1.13D-06 at cycle  27 NSaved=  20.
 NSaved=20 IEnMin=20 EnMin= -2839.37345261515     IErMin=20 ErrMin= 1.13D-06
 ErrMax= 1.13D-06  0.00D+00 EMaxC= 1.00D-01 BMatC= 9.24D-09 BMatP= 4.17D-08
 IDIUse=1 WtCom= 1.00D+00 WtEn= 0.00D+00
 Coeff-Com: -0.517D-03 0.110D-02 0.337D-03 0.190D-02-0.259D-04-0.523D-02
 Coeff-Com: -0.141D-02 0.675D-03 0.856D-02-0.332D-02 0.688D-02-0.300D-01
 Coeff-Com:  0.221D-01 0.162D-01 0.323D-01 0.989D-01-0.148D+00-0.423D+00
 Coeff-Com:  0.418D+00 0.100D+01
 Coeff:     -0.517D-03 0.110D-02 0.337D-03 0.190D-02-0.259D-04-0.523D-02
 Coeff:     -0.141D-02 0.675D-03 0.856D-02-0.332D-02 0.688D-02-0.300D-01
 Coeff:      0.221D-01 0.162D-01 0.323D-01 0.989D-01-0.148D+00-0.423D+00
 Coeff:      0.418D+00 0.100D+01
 Gap=     0.357 Goal=   None    Shift=    0.000
 Gap=     0.135 Goal=   None    Shift=    0.000
 RMSDP=8.25D-07 MaxDP=9.60D-05 DE=-7.16D-08 OVMax= 5.66D-04

 Cycle  28  Pass 1  IDiag  1:
 RMSU=  4.88D-07    CP:  1.00D+00  1.73D+00  3.00D+00  3.00D+00  3.00D+00
                    CP:  3.00D+00  1.56D+00
 E= -2839.37345263654     Delta-E=       -0.000000021388 Rises=F Damp=F
 DIIS: error= 6.09D-07 at cycle  28 NSaved=  20.
 NSaved=20 IEnMin=20 EnMin= -2839.37345263654     IErMin=20 ErrMin= 6.09D-07
 ErrMax= 6.09D-07  0.00D+00 EMaxC= 1.00D-01 BMatC= 2.07D-09 BMatP= 9.24D-09
 IDIUse=1 WtCom= 1.00D+00 WtEn= 0.00D+00
 Coeff-Com:  0.337D-03-0.198D-02 0.170D-02 0.232D-03 0.595D-03-0.655D-02
 Coeff-Com: -0.648D-03 0.663D-02 0.524D-02 0.619D-03-0.139D-01-0.201D-01
 Coeff-Com: -0.365D-01 0.951D-01 0.240D+00-0.919D-01-0.403D+00-0.214D+00
 Coeff-Com:  0.469D+00 0.969D+00
 Coeff:      0.337D-03-0.198D-02 0.170D-02 0.232D-03 0.595D-03-0.655D-02
 Coeff:     -0.648D-03 0.663D-02 0.524D-02 0.619D-03-0.139D-01-0.201D-01
 Coeff:     -0.365D-01 0.951D-01 0.240D+00-0.919D-01-0.403D+00-0.214D+00
 Coeff:      0.469D+00 0.969D+00
 Gap=     0.357 Goal=   None    Shift=    0.000
 Gap=     0.135 Goal=   None    Shift=    0.000
 RMSDP=7.01D-07 MaxDP=5.52D-05 DE=-2.14D-08 OVMax= 4.43D-04

 Cycle  29  Pass 1  IDiag  1:
 RMSU=  2.89D-07    CP:  1.00D+00  1.61D+00  3.00D+00  3.00D+00  3.00D+00
                    CP:  3.00D+00  2.21D+00  1.69D+00
 E= -2839.37345264151     Delta-E=       -0.000000004969 Rises=F Damp=F
 DIIS: error= 9.89D-07 at cycle  29 NSaved=  20.
 NSaved=20 IEnMin=20 EnMin= -2839.37345264151     IErMin=19 ErrMin= 6.09D-07
 ErrMax= 9.89D-07  0.00D+00 EMaxC= 1.00D-01 BMatC= 8.11D-09 BMatP= 2.07D-09
 IDIUse=1 WtCom= 1.00D+00 WtEn= 0.00D+00
 Coeff-Com: -0.152D-02 0.180D-02-0.930D-03 0.536D-02-0.607D-02 0.195D-02
 Coeff-Com: -0.426D-02 0.503D-02-0.340D-02 0.152D-01-0.133D-01-0.503D-01
 Coeff-Com:  0.100D-01 0.698D-01 0.890D-01-0.446D-01-0.251D+00-0.179D+00
 Coeff-Com:  0.346D+00 0.101D+01
 Coeff:     -0.152D-02 0.180D-02-0.930D-03 0.536D-02-0.607D-02 0.195D-02
 Coeff:     -0.426D-02 0.503D-02-0.340D-02 0.152D-01-0.133D-01-0.503D-01
 Coeff:      0.100D-01 0.698D-01 0.890D-01-0.446D-01-0.251D+00-0.179D+00
 Coeff:      0.346D+00 0.101D+01
 Gap=     0.357 Goal=   None    Shift=    0.000
 Gap=     0.135 Goal=   None    Shift=    0.000
 RMSDP=5.94D-07 MaxDP=4.59D-05 DE=-4.97D-09 OVMax= 4.07D-04

 Cycle  30  Pass 1  IDiag  1:
 RMSU=  1.44D-07    CP:  1.00D+00  1.80D+00  3.00D+00  3.00D+00  3.00D+00
                    CP:  3.00D+00  1.99D+00  1.81D+00  6.46D-01
 E= -2839.37345264532     Delta-E=       -0.000000003816 Rises=F Damp=F
 DIIS: error= 6.47D-07 at cycle  30 NSaved=  20.
 NSaved=20 IEnMin=20 EnMin= -2839.37345264532     IErMin=18 ErrMin= 6.09D-07
 ErrMax= 6.47D-07  0.00D+00 EMaxC= 1.00D-01 BMatC= 3.13D-09 BMatP= 2.07D-09
 IDIUse=1 WtCom= 1.00D+00 WtEn= 0.00D+00
 Coeff-Com:  0.351D-03-0.293D-02 0.202D-03 0.340D-02 0.247D-02-0.273D-02
 Coeff-Com: -0.586D-02 0.143D-02 0.107D-01 0.121D-01 0.184D-02-0.548D-01
 Coeff-Com: -0.914D-01 0.120D+00 0.138D+00-0.413D-01-0.321D+00-0.319D+00
 Coeff-Com:  0.482D+00 0.107D+01
 Coeff:      0.351D-03-0.293D-02 0.202D-03 0.340D-02 0.247D-02-0.273D-02
 Coeff:     -0.586D-02 0.143D-02 0.107D-01 0.121D-01 0.184D-02-0.548D-01
 Coeff:     -0.914D-01 0.120D+00 0.138D+00-0.413D-01-0.321D+00-0.319D+00
 Coeff:      0.482D+00 0.107D+01
 Gap=     0.357 Goal=   None    Shift=    0.000
 Gap=     0.135 Goal=   None    Shift=    0.000
 RMSDP=4.66D-07 MaxDP=2.88D-05 DE=-3.82D-09 OVMax= 3.07D-04

 Cycle  31  Pass 1  IDiag  1:
 RMSU=  4.00D-08    CP:  1.00D+00  1.70D+00  3.00D+00  3.00D+00  3.00D+00
                    CP:  3.00D+00  2.38D+00  2.21D+00  1.12D+00  1.39D+00
 E= -2839.37345264746     Delta-E=       -0.000000002135 Rises=F Damp=F
 DIIS: error= 6.53D-07 at cycle  31 NSaved=  20.
 NSaved=20 IEnMin=20 EnMin= -2839.37345264746     IErMin=17 ErrMin= 6.09D-07
 ErrMax= 6.53D-07  0.00D+00 EMaxC= 1.00D-01 BMatC= 4.30D-09 BMatP= 2.07D-09
 IDIUse=1 WtCom= 1.00D+00 WtEn= 0.00D+00
 Coeff-Com: -0.474D-03-0.327D-03 0.582D-03 0.884D-03-0.158D-03-0.293D-02
 Coeff-Com:  0.250D-02-0.398D-02 0.928D-02 0.145D-01-0.181D-01-0.517D-01
 Coeff-Com:  0.384D-01 0.676D-02 0.114D+00-0.463D-01-0.180D+00-0.407D+00
 Coeff-Com:  0.415D+00 0.111D+01
 Coeff:     -0.474D-03-0.327D-03 0.582D-03 0.884D-03-0.158D-03-0.293D-02
 Coeff:      0.250D-02-0.398D-02 0.928D-02 0.145D-01-0.181D-01-0.517D-01
 Coeff:      0.384D-01 0.676D-02 0.114D+00-0.463D-01-0.180D+00-0.407D+00
 Coeff:      0.415D+00 0.111D+01
 Gap=     0.357 Goal=   None    Shift=    0.000
 Gap=     0.135 Goal=   None    Shift=    0.000
 RMSDP=1.24D-07 MaxDP=1.89D-05 DE=-2.14D-09 OVMax= 4.65D-05

 Cycle  32  Pass 1  IDiag  1:
 RMSU=  4.38D-08    CP:  1.00D+00  1.72D+00  3.00D+00  3.00D+00  3.00D+00
                    CP:  3.00D+00  2.38D+00  2.35D+00  1.16D+00  1.84D+00
                    CP:  1.47D+00
 E= -2839.37345264892     Delta-E=       -0.000000001466 Rises=F Damp=F
 DIIS: error= 3.38D-07 at cycle  32 NSaved=  20.
 NSaved=20 IEnMin=20 EnMin= -2839.37345264892     IErMin=20 ErrMin= 3.38D-07
 ErrMax= 3.38D-07  0.00D+00 EMaxC= 1.00D-01 BMatC= 9.26D-10 BMatP= 2.07D-09
 IDIUse=1 WtCom= 1.00D+00 WtEn= 0.00D+00
 Coeff-Com: -0.698D-03-0.508D-03 0.195D-03 0.174D-02 0.217D-03 0.308D-03
 Coeff-Com: -0.747D-02 0.115D-02 0.105D-01 0.181D-01-0.230D-02-0.241D-01
 Coeff-Com: -0.637D-01 0.100D+00 0.923D-01 0.152D-02-0.439D+00-0.524D-01
 Coeff-Com:  0.379D+00 0.984D+00
 Coeff:     -0.698D-03-0.508D-03 0.195D-03 0.174D-02 0.217D-03 0.308D-03
 Coeff:     -0.747D-02 0.115D-02 0.105D-01 0.181D-01-0.230D-02-0.241D-01
 Coeff:     -0.637D-01 0.100D+00 0.923D-01 0.152D-02-0.439D+00-0.524D-01
 Coeff:      0.379D+00 0.984D+00
 Gap=     0.357 Goal=   None    Shift=    0.000
 Gap=     0.135 Goal=   None    Shift=    0.000
 RMSDP=7.32D-08 MaxDP=1.03D-05 DE=-1.47D-09 OVMax= 2.96D-05

 Cycle  33  Pass 1  IDiag  1:
 RMSU=  8.64D-09    CP:  1.00D+00  1.71D+00  3.00D+00  3.00D+00  3.00D+00
                    CP:  3.00D+00  2.42D+00  2.44D+00  1.21D+00  2.11D+00
                    CP:  1.96D+00  1.48D+00
 E= -2839.37345264926     Delta-E=       -0.000000000335 Rises=F Damp=F
 DIIS: error= 3.04D-07 at cycle  33 NSaved=  20.
 NSaved=20 IEnMin=20 EnMin= -2839.37345264926     IErMin=20 ErrMin= 3.04D-07
 ErrMax= 3.04D-07  0.00D+00 EMaxC= 1.00D-01 BMatC= 8.87D-10 BMatP= 9.26D-10
 IDIUse=1 WtCom= 1.00D+00 WtEn= 0.00D+00
 Coeff-Com: -0.922D-03 0.215D-03 0.904D-03 0.157D-02-0.121D-02-0.267D-02
 Coeff-Com: -0.234D-02 0.155D-02 0.179D-01 0.109D-01-0.213D-01-0.417D-01
 Coeff-Com:  0.282D-01 0.685D-01 0.531D-01-0.145D+00-0.987D-01-0.232D+00
 Coeff-Com:  0.451D+00 0.911D+00
 Coeff:     -0.922D-03 0.215D-03 0.904D-03 0.157D-02-0.121D-02-0.267D-02
 Coeff:     -0.234D-02 0.155D-02 0.179D-01 0.109D-01-0.213D-01-0.417D-01
 Coeff:      0.282D-01 0.685D-01 0.531D-01-0.145D+00-0.987D-01-0.232D+00
 Coeff:      0.451D+00 0.911D+00
 Gap=     0.357 Goal=   None    Shift=    0.000
 Gap=     0.135 Goal=   None    Shift=    0.000
 RMSDP=9.24D-08 MaxDP=6.94D-06 DE=-3.35D-10 OVMax= 6.23D-05

 Cycle  34  Pass 1  IDiag  1:
 RMSU=  5.40D-09    CP:  1.00D+00  1.74D+00  3.00D+00  3.00D+00  3.00D+00
                    CP:  3.00D+00  2.37D+00  2.44D+00  1.13D+00  2.36D+00
                    CP:  2.25D+00  1.73D+00  1.78D+00
 E= -2839.37345264932     Delta-E=       -0.000000000058 Rises=F Damp=F
 DIIS: error= 8.24D-08 at cycle  34 NSaved=  20.
 NSaved=20 IEnMin=20 EnMin= -2839.37345264932     IErMin=20 ErrMin= 8.24D-08
 ErrMax= 8.24D-08  0.00D+00 EMaxC= 1.00D-01 BMatC= 5.60D-11 BMatP= 8.87D-10
 IDIUse=1 WtCom= 1.00D+00 WtEn= 0.00D+00
 Coeff-Com:  0.151D-03-0.320D-03-0.439D-04 0.962D-04 0.461D-03 0.684D-03
 Coeff-Com: -0.920D-03-0.209D-02-0.697D-04 0.180D-02 0.378D-02-0.671D-02
 Coeff-Com: -0.558D-02-0.162D-01 0.493D-01 0.522D-01-0.926D-01-0.145D+00
 Coeff-Com: -0.207D-01 0.118D+01
 Coeff:      0.151D-03-0.320D-03-0.439D-04 0.962D-04 0.461D-03 0.684D-03
 Coeff:     -0.920D-03-0.209D-02-0.697D-04 0.180D-02 0.378D-02-0.671D-02
 Coeff:     -0.558D-02-0.162D-01 0.493D-01 0.522D-01-0.926D-01-0.145D+00
 Coeff:     -0.207D-01 0.118D+01
 Gap=     0.357 Goal=   None    Shift=    0.000
 Gap=     0.135 Goal=   None    Shift=    0.000
 RMSDP=1.78D-08 MaxDP=1.61D-06 DE=-5.82D-11 OVMax= 7.72D-06

 Cycle  35  Pass 1  IDiag  1:
 RMSU=  3.34D-09    CP:  1.00D+00  1.74D+00  3.00D+00  3.00D+00  3.00D+00
                    CP:  3.00D+00  2.36D+00  2.45D+00  1.14D+00  2.39D+00
                    CP:  2.35D+00  1.87D+00  2.36D+00  1.63D+00
 E= -2839.37345264936     Delta-E=       -0.000000000040 Rises=F Damp=F
 DIIS: error= 2.43D-08 at cycle  35 NSaved=  20.
 NSaved=20 IEnMin=20 EnMin= -2839.37345264936     IErMin=20 ErrMin= 2.43D-08
 ErrMax= 2.43D-08  0.00D+00 EMaxC= 1.00D-01 BMatC= 3.25D-12 BMatP= 5.60D-11
 IDIUse=1 WtCom= 1.00D+00 WtEn= 0.00D+00
 Coeff-Com: -0.186D-03-0.434D-04 0.364D-03 0.809D-04 0.176D-03-0.631D-03
 Coeff-Com: -0.256D-02 0.982D-03 0.193D-02 0.441D-02-0.859D-02-0.707D-02
 Coeff-Com: -0.177D-01 0.424D-01 0.393D-01 0.189D-01-0.123D+00-0.239D+00
 Coeff-Com:  0.563D+00 0.727D+00
 Coeff:     -0.186D-03-0.434D-04 0.364D-03 0.809D-04 0.176D-03-0.631D-03
 Coeff:     -0.256D-02 0.982D-03 0.193D-02 0.441D-02-0.859D-02-0.707D-02
 Coeff:     -0.177D-01 0.424D-01 0.393D-01 0.189D-01-0.123D+00-0.239D+00
 Coeff:      0.563D+00 0.727D+00
 Gap=     0.357 Goal=   None    Shift=    0.000
 Gap=     0.135 Goal=   None    Shift=    0.000
 RMSDP=1.87D-08 MaxDP=1.26D-06 DE=-4.00D-11 OVMax= 1.37D-05

 Cycle  36  Pass 1  IDiag  1:
 RMSU=  1.40D-09    CP:  1.00D+00  1.74D+00  3.00D+00  3.00D+00  3.00D+00
                    CP:  3.00D+00  2.38D+00  2.45D+00  1.16D+00  2.37D+00
                    CP:  2.39D+00  1.91D+00  2.62D+00  1.96D+00  1.52D+00
 E= -2839.37345264950     Delta-E=       -0.000000000140 Rises=F Damp=F
 DIIS: error= 2.36D-08 at cycle  36 NSaved=  20.
 NSaved=20 IEnMin=20 EnMin= -2839.37345264950     IErMin=20 ErrMin= 2.36D-08
 ErrMax= 2.36D-08  0.00D+00 EMaxC= 1.00D-01 BMatC= 3.68D-12 BMatP= 3.25D-12
 IDIUse=1 WtCom= 1.00D+00 WtEn= 0.00D+00
 Coeff-Com:  0.361D-05 0.159D-03-0.436D-03 0.239D-03 0.227D-02-0.715D-03
 Coeff-Com: -0.469D-02-0.265D-02 0.548D-02 0.113D-01 0.537D-02-0.242D-01
 Coeff-Com: -0.341D-01 0.613D-03 0.105D+00 0.344D-01-0.193D+00-0.498D+00
 Coeff-Com: -0.458D-01 0.164D+01
 Coeff:      0.361D-05 0.159D-03-0.436D-03 0.239D-03 0.227D-02-0.715D-03
 Coeff:     -0.469D-02-0.265D-02 0.548D-02 0.113D-01 0.537D-02-0.242D-01
 Coeff:     -0.341D-01 0.613D-03 0.105D+00 0.344D-01-0.193D+00-0.498D+00
 Coeff:     -0.458D-01 0.164D+01
 Gap=     0.357 Goal=   None    Shift=    0.000
 Gap=     0.135 Goal=   None    Shift=    0.000
 RMSDP=1.04D-08 MaxDP=1.03D-06 DE=-1.40D-10 OVMax= 6.31D-06

 Cycle  37  Pass 1  IDiag  1:
 RMSU=  2.28D-09    CP:  1.00D+00  1.74D+00  3.00D+00  3.00D+00  3.00D+00
                    CP:  3.00D+00  2.38D+00  2.46D+00  1.17D+00  2.39D+00
                    CP:  2.49D+00  1.94D+00  3.00D+00  2.76D+00  2.65D+00
                    CP:  2.23D+00
 E= -2839.37345264938     Delta-E=        0.000000000120 Rises=F Damp=F
 DIIS: error= 1.18D-08 at cycle  37 NSaved=  20.
 NSaved=20 IEnMin=19 EnMin= -2839.37345264950     IErMin=20 ErrMin= 1.18D-08
 ErrMax= 1.18D-08  0.00D+00 EMaxC= 1.00D-01 BMatC= 4.04D-13 BMatP= 3.25D-12
 IDIUse=1 WtCom= 1.00D+00 WtEn= 0.00D+00
 Coeff-Com:  0.455D-04-0.162D-03-0.133D-04-0.145D-03 0.604D-03 0.503D-03
 Coeff-Com: -0.215D-03-0.304D-02 0.350D-02 0.524D-02 0.717D-03-0.217D-01
 Coeff-Com: -0.696D-02 0.283D-01 0.419D-01 0.164D-01-0.115D+00-0.219D+00
 Coeff-Com: -0.212D+00 0.148D+01
 Coeff:      0.455D-04-0.162D-03-0.133D-04-0.145D-03 0.604D-03 0.503D-03
 Coeff:     -0.215D-03-0.304D-02 0.350D-02 0.524D-02 0.717D-03-0.217D-01
 Coeff:     -0.696D-02 0.283D-01 0.419D-01 0.164D-01-0.115D+00-0.219D+00
 Coeff:     -0.212D+00 0.148D+01
 Gap=     0.357 Goal=   None    Shift=    0.000
 Gap=     0.135 Goal=   None    Shift=    0.000
 RMSDP=7.22D-09 MaxDP=8.49D-07 DE= 1.20D-10 OVMax= 3.22D-06

 Error on total polarization charges =  0.00337
 SCF Done:  E(UCAM-B3LYP) =  -2839.37345265     A.U. after   37 cycles
            NFock= 37  Conv=0.72D-08     -V/T= 2.0075
 <Sx>= 0.0000 <Sy>= 0.0000 <Sz>= 0.5000 <S**2>= 0.7649 S= 0.5074
 <L.S>= 0.000000000000E+00
 KE= 2.818351593938D+03 PE=-1.875746891510D+04 EE= 7.054907224003D+03
 Annihilation of the first spin contaminant:
 S**2 before annihilation     0.7649,   after     0.7502
 Leave Link  502 at Sun Mar  3 17:36:01 2024, MaxMem=  5368709120 cpu:      4858.2
 (Enter /home/k0335/k033513/app/g09/l601.exe)
 Copying SCF densities to generalized density rwf, IOpCl= 1 IROHF=0.

 **********************************************************************

            Population analysis using the SCF density.

 **********************************************************************

 Alpha  occ. eigenvalues --  -24.87744 -24.87559 -24.87322 -24.86706 -24.86553
 Alpha  occ. eigenvalues --  -24.86346 -24.86174 -24.86151 -24.85771 -24.85715
 Alpha  occ. eigenvalues --  -24.85697 -24.85677 -24.85660 -24.85556 -24.85435
 Alpha  occ. eigenvalues --  -24.85091 -24.84941 -24.84379 -19.36002 -19.35212
 Alpha  occ. eigenvalues --  -19.32877 -19.32425 -14.66079 -14.56840 -14.56779
 Alpha  occ. eigenvalues --  -10.61986 -10.61373 -10.58664 -10.57775 -10.56837
 Alpha  occ. eigenvalues --  -10.56777 -10.52906 -10.52830 -10.52648 -10.52144
 Alpha  occ. eigenvalues --  -10.42883 -10.40123 -10.33972 -10.30474 -10.28094
 Alpha  occ. eigenvalues --   -1.45988  -1.44930  -1.44878  -1.44164  -1.42851
 Alpha  occ. eigenvalues --   -1.42407  -1.39391  -1.38575  -1.36531  -1.36232
 Alpha  occ. eigenvalues --   -1.35911  -1.35584  -1.35277  -1.35207  -1.35028
 Alpha  occ. eigenvalues --   -1.34955  -1.34381  -1.34262  -1.29997  -1.25325
 Alpha  occ. eigenvalues --   -1.23355  -1.23015  -1.18695  -1.16969  -1.12200
 Alpha  occ. eigenvalues --   -0.97836  -0.96789  -0.96248  -0.91098  -0.90136
 Alpha  occ. eigenvalues --   -0.90020  -0.85701  -0.85146  -0.84349  -0.82981
 Alpha  occ. eigenvalues --   -0.81131  -0.79122  -0.78500  -0.77133  -0.76157
 Alpha  occ. eigenvalues --   -0.75958  -0.75084  -0.74829  -0.73675  -0.73235
 Alpha  occ. eigenvalues --   -0.72759  -0.72584  -0.72148  -0.71723  -0.71435
 Alpha  occ. eigenvalues --   -0.71353  -0.70712  -0.70671  -0.69881  -0.69767
 Alpha  occ. eigenvalues --   -0.68931  -0.68439  -0.68169  -0.67159  -0.67057
 Alpha  occ. eigenvalues --   -0.65817  -0.63310  -0.62365  -0.62069  -0.61845
 Alpha  occ. eigenvalues --   -0.61354  -0.61093  -0.60441  -0.60339  -0.60141
 Alpha  occ. eigenvalues --   -0.59573  -0.59360  -0.58727  -0.58659  -0.58431
 Alpha  occ. eigenvalues --   -0.58213  -0.58049  -0.58026  -0.57632  -0.57145
 Alpha  occ. eigenvalues --   -0.57044  -0.56885  -0.56411  -0.55851  -0.55738
 Alpha  occ. eigenvalues --   -0.55360  -0.55108  -0.54927  -0.54730  -0.54443
 Alpha  occ. eigenvalues --   -0.54284  -0.54015  -0.53768  -0.53679  -0.53555
 Alpha  occ. eigenvalues --   -0.53301  -0.53190  -0.52850  -0.52601  -0.52115
 Alpha  occ. eigenvalues --   -0.51885  -0.51734  -0.51534  -0.51440  -0.51279
 Alpha  occ. eigenvalues --   -0.50928  -0.50371  -0.49324  -0.48203  -0.47388
 Alpha  occ. eigenvalues --   -0.46764  -0.46082  -0.45457  -0.44804  -0.44580
 Alpha  occ. eigenvalues --   -0.44161  -0.43436  -0.42521
 Alpha virt. eigenvalues --   -0.06857  -0.00953   0.00463   0.02548   0.04854
 Alpha virt. eigenvalues --    0.05538   0.08483   0.09326   0.10244   0.10489
 Alpha virt. eigenvalues --    0.11766   0.12576   0.12783   0.13888   0.14048
 Alpha virt. eigenvalues --    0.14363   0.15297   0.16359   0.16820   0.16947
 Alpha virt. eigenvalues --    0.17212   0.17617   0.18609   0.19030   0.19177
 Alpha virt. eigenvalues --    0.19735   0.20071   0.20207   0.20418   0.20769
 Alpha virt. eigenvalues --    0.20890   0.21128   0.21199   0.21448   0.22103
 Alpha virt. eigenvalues --    0.22280   0.22545   0.23030   0.23494   0.24456
 Alpha virt. eigenvalues --    0.25347   0.25500   0.26858   0.27174   0.27401
 Alpha virt. eigenvalues --    0.27587   0.28102   0.30404   0.30919   0.32603
 Alpha virt. eigenvalues --    0.33609   0.36140   0.39488   0.42982   0.43459
 Alpha virt. eigenvalues --    0.45367   0.46419   0.47141   0.47621   0.48045
 Alpha virt. eigenvalues --    0.48472   0.48791   0.49400   0.50276   0.50502
 Alpha virt. eigenvalues --    0.51409   0.51791   0.51947   0.52484   0.52676
 Alpha virt. eigenvalues --    0.53242   0.53654   0.54444   0.55069   0.55487
 Alpha virt. eigenvalues --    0.56260   0.57027   0.57714   0.58404   0.59163
 Alpha virt. eigenvalues --    0.59293   0.59897   0.61041   0.61716   0.62467
 Alpha virt. eigenvalues --    0.63192   0.63782   0.64809   0.67036   0.67516
 Alpha virt. eigenvalues --    0.68341   0.68731   0.70506   0.73417   0.74189
 Alpha virt. eigenvalues --    0.74808   0.76486   0.76890   0.78404   0.78967
 Alpha virt. eigenvalues --    0.79719   0.81283   0.81802   0.82566   0.83890
 Alpha virt. eigenvalues --    0.84082   0.84712   0.86364   0.86549   0.87098
 Alpha virt. eigenvalues --    0.87674   0.88573   0.89286   0.90157   0.90901
 Alpha virt. eigenvalues --    0.91444   0.91993   0.92910   0.93691   0.94114
 Alpha virt. eigenvalues --    0.95515   0.96606   0.97066   0.97945   0.98324
 Alpha virt. eigenvalues --    0.99001   0.99317   1.00902   1.01597   1.02310
 Alpha virt. eigenvalues --    1.04089   1.04771   1.05895   1.06313   1.07773
 Alpha virt. eigenvalues --    1.08791   1.08996   1.09758   1.10400   1.10587
 Alpha virt. eigenvalues --    1.11197   1.11692   1.12101   1.12997   1.13927
 Alpha virt. eigenvalues --    1.14406   1.14718   1.15023   1.15797   1.16642
 Alpha virt. eigenvalues --    1.16711   1.17647   1.18868   1.18956   1.20259
 Alpha virt. eigenvalues --    1.20832   1.21187   1.21715   1.22752   1.23612
 Alpha virt. eigenvalues --    1.24623   1.25524   1.25915   1.26400   1.27835
 Alpha virt. eigenvalues --    1.28089   1.28576   1.29303   1.30059   1.30838
 Alpha virt. eigenvalues --    1.31204   1.32220   1.32323   1.33325   1.33624
 Alpha virt. eigenvalues --    1.34235   1.35122   1.35368   1.36319   1.36501
 Alpha virt. eigenvalues --    1.36944   1.37399   1.37435   1.37896   1.38271
 Alpha virt. eigenvalues --    1.38445   1.38585   1.39047   1.39309   1.39599
 Alpha virt. eigenvalues --    1.40136   1.40776   1.41071   1.41687   1.42799
 Alpha virt. eigenvalues --    1.42921   1.43268   1.43648   1.44424   1.45258
 Alpha virt. eigenvalues --    1.46222   1.47138   1.47584   1.48817   1.49126
 Alpha virt. eigenvalues --    1.49992   1.51351   1.52115   1.52590   1.52767
 Alpha virt. eigenvalues --    1.53599   1.54811   1.55395   1.56055   1.57273
 Alpha virt. eigenvalues --    1.58386   1.59733   1.60377   1.60799   1.61393
 Alpha virt. eigenvalues --    1.61821   1.62211   1.62631   1.64069   1.64639
 Alpha virt. eigenvalues --    1.65017   1.65619   1.66631   1.67574   1.68560
 Alpha virt. eigenvalues --    1.68813   1.69724   1.70157   1.70827   1.71298
 Alpha virt. eigenvalues --    1.71871   1.72440   1.73030   1.73212   1.73654
 Alpha virt. eigenvalues --    1.73957   1.75243   1.76491   1.77557   1.78059
 Alpha virt. eigenvalues --    1.78717   1.79474   1.79822   1.80045   1.80265
 Alpha virt. eigenvalues --    1.80659   1.81404   1.81730   1.82270   1.83137
 Alpha virt. eigenvalues --    1.83203   1.83675   1.84184   1.84521   1.85018
 Alpha virt. eigenvalues --    1.85133   1.85529   1.85870   1.86250   1.86913
 Alpha virt. eigenvalues --    1.86962   1.87461   1.87543   1.87963   1.88436
 Alpha virt. eigenvalues --    1.88979   1.89421   1.89818   1.90875   1.91667
 Alpha virt. eigenvalues --    1.91902   1.92089   1.92204   1.93161   1.93261
 Alpha virt. eigenvalues --    1.93806   1.94527   1.95091   1.95656   1.96298
 Alpha virt. eigenvalues --    1.96586   1.96812   1.97361   1.97505   1.98043
 Alpha virt. eigenvalues --    1.99140   1.99541   2.00170   2.00504   2.01082
 Alpha virt. eigenvalues --    2.01251   2.01495   2.02000   2.02195   2.02430
 Alpha virt. eigenvalues --    2.02685   2.03053   2.03527   2.03891   2.03971
 Alpha virt. eigenvalues --    2.04602   2.06458   2.07072   2.07243   2.07472
 Alpha virt. eigenvalues --    2.07976   2.08277   2.08474   2.08754   2.09118
 Alpha virt. eigenvalues --    2.09877   2.10148   2.11032   2.11379   2.12604
 Alpha virt. eigenvalues --    2.12745   2.13369   2.13691   2.14825   2.14932
 Alpha virt. eigenvalues --    2.15396   2.16169   2.17665   2.17935   2.18361
 Alpha virt. eigenvalues --    2.19404   2.20535   2.20953   2.21847   2.22641
 Alpha virt. eigenvalues --    2.23192   2.24169   2.25582   2.26205   2.27165
 Alpha virt. eigenvalues --    2.28237   2.28925   2.29557   2.30111   2.31004
 Alpha virt. eigenvalues --    2.32705   2.32963   2.33543   2.34581   2.35676
 Alpha virt. eigenvalues --    2.35909   2.36848   2.37617   2.38237   2.39387
 Alpha virt. eigenvalues --    2.39937   2.40248   2.40816   2.42651   2.43217
 Alpha virt. eigenvalues --    2.43697   2.44888   2.45118   2.46954   2.48605
 Alpha virt. eigenvalues --    2.49952   2.50125   2.51291   2.51391   2.52019
 Alpha virt. eigenvalues --    2.52680   2.54661   2.55129   2.56985   2.57818
 Alpha virt. eigenvalues --    2.58050   2.59440   2.60180   2.62674   2.63553
 Alpha virt. eigenvalues --    2.64284   2.64760   2.66104   2.66846   2.67535
 Alpha virt. eigenvalues --    2.69225   2.69576   2.71358   2.72864   2.73950
 Alpha virt. eigenvalues --    2.75167   2.75455   2.77117   2.77667   2.78299
 Alpha virt. eigenvalues --    2.78760   2.79801   2.80173   2.81104   2.83074
 Alpha virt. eigenvalues --    2.83611   2.83945   2.85002   2.85887   2.86121
 Alpha virt. eigenvalues --    2.86232   2.88475   2.88638   2.90305   2.91044
 Alpha virt. eigenvalues --    2.91582   2.92181   2.92639   2.93696   2.94219
 Alpha virt. eigenvalues --    2.95565   2.95708   2.96732   2.97318   2.97867
 Alpha virt. eigenvalues --    2.99646   3.01698   3.02322   3.03893   3.04425
 Alpha virt. eigenvalues --    3.04925   3.05002   3.07028   3.07836   3.08233
 Alpha virt. eigenvalues --    3.10599   3.12475   3.13038   3.15020   3.15256
 Alpha virt. eigenvalues --    3.16124   3.17008   3.18707   3.22254   3.23371
 Alpha virt. eigenvalues --    3.25776   3.25992   3.26854   3.27656   3.28469
 Alpha virt. eigenvalues --    3.29783   3.31607   3.32701   3.33925   3.34404
 Alpha virt. eigenvalues --    3.34969   3.39529   3.46568   3.49855   3.52148
 Alpha virt. eigenvalues --    3.56453   3.60243   4.01352   4.07259   4.07684
 Alpha virt. eigenvalues --    4.12219   4.14944   4.17350   4.23121   4.28606
 Alpha virt. eigenvalues --    4.30871   4.36830   4.37584   4.41685   4.45155
 Alpha virt. eigenvalues --    4.46933   4.47812   4.51456   4.53969   4.56622
 Alpha virt. eigenvalues --    4.60069   4.60817   4.63657   4.72315   4.73590
 Alpha virt. eigenvalues --    4.77025   4.86054   4.90256   4.98711   5.04521
 Alpha virt. eigenvalues --    5.10565   5.13662   5.25004   5.33544   5.45052
 Alpha virt. eigenvalues --    5.54139   5.76108   5.94043   6.18158   6.39534
 Alpha virt. eigenvalues --    6.64327   6.71434
  Beta  occ. eigenvalues --  -24.87744 -24.87559 -24.87322 -24.86698 -24.86553
  Beta  occ. eigenvalues --  -24.86344 -24.86170 -24.86151 -24.85771 -24.85703
  Beta  occ. eigenvalues --  -24.85682 -24.85677 -24.85660 -24.85555 -24.85435
  Beta  occ. eigenvalues --  -24.85091 -24.84941 -24.84379 -19.36002 -19.35207
  Beta  occ. eigenvalues --  -19.32454 -19.32078 -14.64781 -14.56769 -14.56696
  Beta  occ. eigenvalues --  -10.61986 -10.61373 -10.58664 -10.57775 -10.56843
  Beta  occ. eigenvalues --  -10.56783 -10.53006 -10.52906 -10.52806 -10.52141
  Beta  occ. eigenvalues --  -10.42892 -10.40059 -10.33768 -10.30436 -10.28059
  Beta  occ. eigenvalues --   -1.45987  -1.44930  -1.44876  -1.44162  -1.42840
  Beta  occ. eigenvalues --   -1.42385  -1.39391  -1.38571  -1.36531  -1.36231
  Beta  occ. eigenvalues --   -1.35898  -1.35565  -1.35274  -1.35204  -1.35022
  Beta  occ. eigenvalues --   -1.34949  -1.34379  -1.34261  -1.28883  -1.24729
  Beta  occ. eigenvalues --   -1.23352  -1.22983  -1.17967  -1.15221  -1.11931
  Beta  occ. eigenvalues --   -0.97578  -0.96620  -0.95956  -0.90937  -0.89976
  Beta  occ. eigenvalues --   -0.89680  -0.85451  -0.85007  -0.84153  -0.82978
  Beta  occ. eigenvalues --   -0.80904  -0.78894  -0.78321  -0.77107  -0.76145
  Beta  occ. eigenvalues --   -0.75716  -0.75027  -0.74726  -0.73651  -0.73129
  Beta  occ. eigenvalues --   -0.72599  -0.72219  -0.71908  -0.71563  -0.71429
  Beta  occ. eigenvalues --   -0.71240  -0.70662  -0.70637  -0.69804  -0.69496
  Beta  occ. eigenvalues --   -0.68892  -0.68332  -0.67353  -0.67086  -0.66466
  Beta  occ. eigenvalues --   -0.64952  -0.62389  -0.62046  -0.61765  -0.61524
  Beta  occ. eigenvalues --   -0.61157  -0.60714  -0.60321  -0.60158  -0.59956
  Beta  occ. eigenvalues --   -0.59381  -0.59098  -0.58664  -0.58572  -0.58359
  Beta  occ. eigenvalues --   -0.58173  -0.58001  -0.57951  -0.57586  -0.57121
  Beta  occ. eigenvalues --   -0.56961  -0.56785  -0.56308  -0.55597  -0.55342
  Beta  occ. eigenvalues --   -0.55124  -0.54746  -0.54642  -0.54539  -0.54306
  Beta  occ. eigenvalues --   -0.54142  -0.53905  -0.53713  -0.53643  -0.53389
  Beta  occ. eigenvalues --   -0.53295  -0.53178  -0.52823  -0.52594  -0.52086
  Beta  occ. eigenvalues --   -0.51864  -0.51532  -0.51400  -0.51265  -0.51192
  Beta  occ. eigenvalues --   -0.50832  -0.50151  -0.48061  -0.47153  -0.46609
  Beta  occ. eigenvalues --   -0.45912  -0.45224  -0.44285  -0.44066  -0.43620
  Beta  occ. eigenvalues --   -0.43338  -0.41359
  Beta virt. eigenvalues --   -0.27867  -0.06035   0.00503   0.00897   0.02561
  Beta virt. eigenvalues --    0.04962   0.05615   0.08776   0.09403   0.10396
  Beta virt. eigenvalues --    0.10681   0.11887   0.12693   0.12997   0.14041
  Beta virt. eigenvalues --    0.14106   0.14537   0.15371   0.16408   0.16963
  Beta virt. eigenvalues --    0.16981   0.17461   0.17663   0.18783   0.19132
  Beta virt. eigenvalues --    0.19197   0.19948   0.20148   0.20282   0.20431
  Beta virt. eigenvalues --    0.20800   0.20909   0.21155   0.21334   0.21475
  Beta virt. eigenvalues --    0.22130   0.22289   0.22821   0.23200   0.23539
  Beta virt. eigenvalues --    0.24567   0.25507   0.26011   0.26891   0.27207
  Beta virt. eigenvalues --    0.27462   0.27754   0.28136   0.30464   0.30941
  Beta virt. eigenvalues --    0.32752   0.33674   0.36348   0.39679   0.43224
  Beta virt. eigenvalues --    0.43718   0.45453   0.46495   0.47187   0.47714
  Beta virt. eigenvalues --    0.48190   0.48512   0.48828   0.49426   0.50376
  Beta virt. eigenvalues --    0.50709   0.51488   0.51832   0.52006   0.52523
  Beta virt. eigenvalues --    0.52795   0.53414   0.53664   0.54511   0.55071
  Beta virt. eigenvalues --    0.55584   0.56297   0.57042   0.57839   0.58521
  Beta virt. eigenvalues --    0.59219   0.59391   0.60029   0.61582   0.61747
  Beta virt. eigenvalues --    0.62552   0.63233   0.63843   0.64984   0.67325
  Beta virt. eigenvalues --    0.67601   0.68415   0.68847   0.70783   0.73515
  Beta virt. eigenvalues --    0.74276   0.74879   0.76625   0.77064   0.78659
  Beta virt. eigenvalues --    0.79159   0.80103   0.81459   0.81874   0.82731
  Beta virt. eigenvalues --    0.84051   0.84285   0.84971   0.86567   0.86752
  Beta virt. eigenvalues --    0.87681   0.87880   0.88765   0.89347   0.90281
  Beta virt. eigenvalues --    0.91059   0.91661   0.92176   0.92965   0.93824
  Beta virt. eigenvalues --    0.94310   0.95872   0.96782   0.97309   0.98111
  Beta virt. eigenvalues --    0.98465   0.99183   0.99440   1.01129   1.01946
  Beta virt. eigenvalues --    1.02488   1.04426   1.05031   1.05970   1.06374
  Beta virt. eigenvalues --    1.07945   1.08835   1.09127   1.09860   1.10485
  Beta virt. eigenvalues --    1.10690   1.11377   1.11777   1.12149   1.13090
  Beta virt. eigenvalues --    1.13959   1.14449   1.14753   1.15125   1.15834
  Beta virt. eigenvalues --    1.16702   1.16899   1.17712   1.18960   1.19107
  Beta virt. eigenvalues --    1.20431   1.20968   1.21291   1.21876   1.22870
  Beta virt. eigenvalues --    1.23685   1.24797   1.25627   1.26340   1.26519
  Beta virt. eigenvalues --    1.27856   1.28298   1.28786   1.29374   1.30192
[...]
    37   Atom       -0.000123      0.000203     -0.000080
    38   Atom       -0.000159      0.000205     -0.000046
    39   Atom        0.048767      0.003772     -0.052539
    40   Atom       -0.272162      0.125486      0.146676
    41   Atom       -0.002691      0.001659      0.001032
    42   Atom       -0.002470      0.002779     -0.000308
    43   Atom        0.001273      0.001425     -0.002699
    44   Atom        0.000754      0.003175     -0.003928
    45   Atom       -0.004073      0.002798      0.001275
    46   Atom       -0.007649      0.001552      0.006098
    47   Atom        0.009069      0.001657     -0.010726
    48   Atom        0.011251     -0.004153     -0.007098
    49   Atom        0.000173     -0.005593      0.005420
    50   Atom       -0.002355     -0.000954      0.003309
    51   Atom       -0.001635      0.002535     -0.000899
 --------------------------------------------------------
                        XY            XZ            YZ
 --------------------------------------------------------
     1   Atom       -0.006496      0.001070     -0.009036
     2   Atom       -0.001620     -0.000014      0.005678
     3   Atom       -0.058383      0.026318     -0.099234
     4   Atom       -0.033767      0.054596     -0.070586
     5   Atom       -0.402249      0.638907     -0.767196
     6   Atom        0.017363     -0.053448      0.054401
     7   Atom       -0.139021      0.189149     -0.336146
     8   Atom       -0.030656      0.032488     -0.055035
     9   Atom       -0.001120     -0.001618      0.003119
    10   Atom        0.000558     -0.000200      0.002336
    11   Atom       -0.002491     -0.014019      0.006287
    12   Atom       -0.002853     -0.000103      0.000791
    13   Atom       -0.002373      0.002161     -0.000387
    14   Atom       -0.005466     -0.004301      0.004527
    15   Atom       -0.000845     -0.001264      0.000309
    16   Atom       -0.000136     -0.000650      0.000138
    17   Atom       -0.000760     -0.001881      0.000461
    18   Atom       -0.000360     -0.000953      0.000059
    19   Atom       -0.001317     -0.000307      0.000419
    20   Atom       -0.001237     -0.000094      0.000142
    21   Atom       -0.005250      0.001874     -0.003502
    22   Atom       -0.000661     -0.000189      0.000445
    23   Atom        0.000395      0.003114      0.002338
    24   Atom       -0.025612      0.028255     -0.053640
    25   Atom        0.002777      0.000444      0.001669
    26   Atom        0.023757     -0.006078     -0.007146
    27   Atom        0.008043      0.003820      0.001807
    28   Atom        0.001506      0.000249      0.000633
    29   Atom        0.000676     -0.000006      0.000325
    30   Atom        0.000816     -0.000008      0.000062
    31   Atom        0.000723     -0.000018      0.000008
    32   Atom        0.000476      0.000075      0.000092
    33   Atom        0.000922      0.000162      0.000008
    34   Atom        0.000503     -0.000121     -0.000127
    35   Atom        0.000864      0.000488      0.000633
    36   Atom        0.000767      0.000474      0.000453
    37   Atom        0.000575      0.000447      0.000526
    38   Atom        0.000752      0.000712      0.000837
    39   Atom        0.033086     -0.053693      0.053931
    40   Atom       -0.151915      0.135008     -0.457519
    41   Atom        0.000396     -0.001570     -0.002331
    42   Atom        0.000809      0.001039      0.002423
    43   Atom       -0.002063      0.001672     -0.000962
    44   Atom        0.002797      0.002390      0.001414
    45   Atom       -0.001228     -0.002317      0.002819
    46   Atom       -0.001465     -0.008730     -0.005784
    47   Atom       -0.002390      0.005826     -0.004046
    48   Atom        0.008929      0.001542      0.004070
    49   Atom       -0.001944     -0.009813      0.008403
    50   Atom        0.001577      0.003258      0.003662
    51   Atom        0.001106      0.000209      0.002818
 --------------------------------------------------------


 ---------------------------------------------------------------------------------
              Anisotropic Spin Dipole Couplings in Principal Axis System
 ---------------------------------------------------------------------------------

       Atom             a.u.   MegaHertz   Gauss  10(-4) cm-1        Axes

              Baa    -0.0164    -2.200    -0.785    -0.734  0.3977  0.2309  0.8880
     1 C(13)  Bbb    -0.0158    -2.126    -0.758    -0.709  0.9071  0.0465 -0.4184
              Bcc     0.0322     4.326     1.544     1.443 -0.1379  0.9719 -0.1910
 
              Baa    -0.0235    -3.151    -1.124    -1.051  0.8579  0.0615 -0.5100
     2 C(13)  Bbb    -0.0232    -3.116    -1.112    -1.039  0.5132 -0.0581  0.8563
              Bcc     0.0467     6.267     2.236     2.090 -0.0231  0.9964  0.0814
 
              Baa    -0.0927   -12.445    -4.441    -4.151  0.3308  0.4693  0.8188
     3 C(13)  Bbb    -0.0907   -12.169    -4.342    -4.059  0.9125  0.0620 -0.4043
              Bcc     0.1834    24.614     8.783     8.210 -0.2405  0.8809 -0.4077
 
              Baa    -0.0720    -9.663    -3.448    -3.223  0.9149  0.0345 -0.4022
     4 C(13)  Bbb    -0.0499    -6.690    -2.387    -2.231  0.1918  0.8396  0.5083
              Bcc     0.1219    16.352     5.835     5.455  0.3552 -0.5422  0.7615
 
              Baa    -0.6819   -26.301    -9.385    -8.773  0.9078  0.1127 -0.4040
     5 N(14)  Bbb    -0.6760   -26.073    -9.304    -8.697  0.1099  0.8656  0.4885
              Bcc     1.3580    52.374    18.688    17.470  0.4048 -0.4879  0.7734
 
              Baa    -0.0993   -13.319    -4.753    -4.443  0.3607 -0.5010  0.7867
     6 C(13)  Bbb     0.0298     4.001     1.428     1.335  0.3909  0.8470  0.3602
              Bcc     0.0694     9.318     3.325     3.108  0.8468 -0.1776 -0.5014
 
              Baa    -0.2655    19.214     6.856     6.409 -0.1787  0.7469  0.6405
     7 O(17)  Bbb    -0.2488    18.001     6.423     6.005  0.9287  0.3431 -0.1409
              Bcc     0.5143   -37.215   -13.279   -12.414  0.3250 -0.5696  0.7550
 
              Baa    -0.0502    -1.937    -0.691    -0.646  0.8808  0.4724 -0.0328
     8 N(14)  Bbb    -0.0389    -1.502    -0.536    -0.501 -0.3259  0.6549  0.6818
              Bcc     0.0892     3.438     1.227     1.147  0.3436 -0.5898  0.7308
 
              Baa    -0.0028    -0.374    -0.134    -0.125  0.2511 -0.6277  0.7369
     9 C(13)  Bbb    -0.0015    -0.199    -0.071    -0.066  0.9005  0.4307  0.0600
              Bcc     0.0043     0.574     0.205     0.191 -0.3550  0.6485  0.6734
 
              Baa    -0.0023    -1.159    -0.413    -0.386  0.6399 -0.3976  0.6576
    10 F(19)  Bbb    -0.0014    -0.713    -0.254    -0.238  0.7650  0.2483 -0.5943
              Bcc     0.0037     1.871     0.668     0.624  0.0731  0.8833  0.4630
 
              Baa    -0.0184    -9.227    -3.292    -3.078  0.1008  0.9891 -0.1075
    11 F(19)  Bbb    -0.0138    -6.914    -2.467    -2.306  0.9394 -0.0590  0.3378
              Bcc     0.0321    16.141     5.759     5.384 -0.3278  0.1350  0.9351
 
              Baa    -0.0025    -0.333    -0.119    -0.111  0.4912  0.6870 -0.5355
    12 C(13)  Bbb    -0.0013    -0.171    -0.061    -0.057  0.4137  0.3570  0.8375
              Bcc     0.0038     0.505     0.180     0.168  0.7665 -0.6329 -0.1088
 
              Baa    -0.0031    -1.540    -0.549    -0.514 -0.4065 -0.4313  0.8055
    13 F(19)  Bbb    -0.0022    -1.107    -0.395    -0.369  0.1452  0.8399  0.5230
              Bcc     0.0053     2.646     0.944     0.883  0.9021 -0.3296  0.2787
 
              Baa    -0.0050     0.364     0.130     0.121  0.4272  0.7894 -0.4409
    14 O(17)  Bbb    -0.0046     0.334     0.119     0.111  0.6665  0.0546  0.7435
              Bcc     0.0096    -0.698    -0.249    -0.233 -0.6110  0.6115  0.5028
 
              Baa    -0.0013    -0.180    -0.064    -0.060  0.4229  0.1792  0.8883
    15 C(13)  Bbb    -0.0011    -0.149    -0.053    -0.050  0.1650  0.9486 -0.2699
              Bcc     0.0024     0.329     0.117     0.110  0.8910 -0.2608 -0.3716
 
              Baa    -0.0012    -0.623    -0.222    -0.208 -0.0693  0.8429 -0.5336
    16 F(19)  Bbb    -0.0010    -0.504    -0.180    -0.168  0.1951  0.5360  0.8213
              Bcc     0.0022     1.128     0.402     0.376  0.9783 -0.0472 -0.2016
 
              Baa    -0.0015    -0.760    -0.271    -0.253  0.3552  0.9204  0.1634
    17 F(19)  Bbb    -0.0013    -0.666    -0.238    -0.222  0.4817 -0.3300  0.8118
              Bcc     0.0028     1.426     0.509     0.475  0.8011 -0.2096 -0.5606
 
              Baa    -0.0009    -0.430    -0.154    -0.144  0.4973  0.6019  0.6248
    18 F(19)  Bbb    -0.0006    -0.286    -0.102    -0.096 -0.2073  0.7817 -0.5881
              Bcc     0.0014     0.717     0.256     0.239  0.8424 -0.1629 -0.5136
 
              Baa    -0.0012    -0.154    -0.055    -0.051  0.2764 -0.0163  0.9609
    19 C(13)  Bbb    -0.0009    -0.127    -0.045    -0.042  0.8123  0.5382 -0.2245
              Bcc     0.0021     0.282     0.100     0.094 -0.5135  0.8426  0.1620
 
              Baa    -0.0009    -0.448    -0.160    -0.149 -0.1351 -0.1875  0.9729
    20 F(19)  Bbb    -0.0008    -0.417    -0.149    -0.139  0.7742  0.5928  0.2217
              Bcc     0.0017     0.865     0.309     0.288 -0.6184  0.7832  0.0651
 
              Baa    -0.0046    -2.320    -0.828    -0.774  0.7447  0.5671  0.3518
    21 F(19)  Bbb    -0.0042    -2.121    -0.757    -0.708 -0.4697  0.0709  0.8800
              Bcc     0.0088     4.441     1.585     1.481 -0.4741  0.8206 -0.3192
 
              Baa    -0.0008    -0.394    -0.141    -0.132  0.9385  0.2878  0.1908
    22 F(19)  Bbb    -0.0006    -0.323    -0.115    -0.108 -0.1054 -0.2875  0.9520
              Bcc     0.0014     0.717     0.256     0.239 -0.3289  0.9135  0.2394
 
              Baa    -0.0066    -0.882    -0.315    -0.294  0.8417  0.0732 -0.5350
    23 C(13)  Bbb    -0.0002    -0.032    -0.011    -0.011  0.5268 -0.3284  0.7840
              Bcc     0.0068     0.914     0.326     0.305  0.1183  0.9417  0.3149
 
              Baa    -0.0436    -1.681    -0.600    -0.561 -0.6609  0.3181  0.6798
    24 N(14)  Bbb    -0.0371    -1.431    -0.511    -0.477  0.6724  0.6533  0.3481
              Bcc     0.0807     3.111     1.110     1.038 -0.3333  0.6871 -0.6456
 
              Baa    -0.0028    -0.375    -0.134    -0.125  0.3650 -0.5430  0.7563
    25 C(13)  Bbb    -0.0013    -0.181    -0.065    -0.060  0.7146 -0.3574 -0.6014
              Bcc     0.0041     0.556     0.198     0.185  0.5968  0.7599  0.2575
 
              Baa    -0.0215   -10.778    -3.846    -3.595 -0.2735  0.6692  0.6909
    26 F(19)  Bbb    -0.0155    -7.778    -2.776    -2.595  0.4634 -0.5378  0.7043
              Bcc     0.0369    18.557     6.622     6.190  0.8429  0.5128 -0.1630
 
              Baa    -0.0133    -6.665    -2.378    -2.223 -0.2034  0.9530 -0.2248
    27 F(19)  Bbb    -0.0094    -4.725    -1.686    -1.576 -0.1763  0.1902  0.9658
              Bcc     0.0227    11.390     4.064     3.799  0.9631  0.2360  0.1293
 
              Baa    -0.0013    -0.172    -0.061    -0.057  0.5705 -0.5055  0.6473
    28 C(13)  Bbb    -0.0010    -0.138    -0.049    -0.046 -0.6401  0.2202  0.7361
              Bcc     0.0023     0.310     0.111     0.103  0.5147  0.8342  0.1979
 
              Baa    -0.0010    -0.493    -0.176    -0.164  0.9253 -0.3160  0.2095
    29 F(19)  Bbb    -0.0005    -0.247    -0.088    -0.082 -0.2477 -0.0854  0.9651
              Bcc     0.0015     0.740     0.264     0.247  0.2871  0.9449  0.1573
 
              Baa    -0.0006     0.047     0.017     0.016  0.3425 -0.2681  0.9004
    30 O(17)  Bbb    -0.0005     0.039     0.014     0.013  0.7439 -0.5080 -0.4342
              Bcc     0.0012    -0.085    -0.030    -0.028  0.5738  0.8186  0.0255
 
              Baa    -0.0005    -0.067    -0.024    -0.022  0.5230 -0.4993  0.6907
    31 C(13)  Bbb    -0.0005    -0.062    -0.022    -0.021 -0.4954  0.4814  0.7231
              Bcc     0.0010     0.129     0.046     0.043  0.6936  0.7204 -0.0044
 
              Baa    -0.0003    -0.168    -0.060    -0.056  0.4024 -0.5292  0.7470
    32 F(19)  Bbb    -0.0003    -0.156    -0.056    -0.052 -0.5915  0.4725  0.6533
              Bcc     0.0006     0.324     0.116     0.108  0.6987  0.7048  0.1228
 
              Baa    -0.0008    -0.404    -0.144    -0.135 -0.5699  0.7939  0.2119
    33 F(19)  Bbb    -0.0004    -0.196    -0.070    -0.066  0.0515 -0.2229  0.9735
              Bcc     0.0012     0.600     0.214     0.200  0.8201  0.5657  0.0861
 
              Baa    -0.0003    -0.174    -0.062    -0.058 -0.6079  0.6869  0.3983
    34 F(19)  Bbb    -0.0003    -0.172    -0.061    -0.057  0.3998 -0.1686  0.9010
              Bcc     0.0007     0.347     0.124     0.116  0.6860  0.7070 -0.1721
 
              Baa    -0.0007    -0.098    -0.035    -0.033 -0.4971  0.7010 -0.5113
    35 C(13)  Bbb    -0.0007    -0.092    -0.033    -0.031 -0.6535  0.0852  0.7521
              Bcc     0.0014     0.190     0.068     0.063  0.5708  0.7080  0.4158
 
              Baa    -0.0006    -0.316    -0.113    -0.105 -0.1462 -0.3963  0.9064
    36 F(19)  Bbb    -0.0006    -0.296    -0.106    -0.099  0.7240 -0.6672 -0.1749
              Bcc     0.0012     0.612     0.219     0.204  0.6741  0.6306  0.3845
 
              Baa    -0.0006    -0.288    -0.103    -0.096  0.8496 -0.3833 -0.3622
    37 F(19)  Bbb    -0.0005    -0.243    -0.087    -0.081  0.0452 -0.6313  0.7742
              Bcc     0.0011     0.530     0.189     0.177  0.5254  0.6742  0.5191
 
              Baa    -0.0008    -0.411    -0.147    -0.137 -0.6674 -0.1120  0.7363
    38 F(19)  Bbb    -0.0007    -0.368    -0.131    -0.123 -0.5355  0.7592 -0.3699
              Bcc     0.0016     0.779     0.278     0.260  0.5176  0.6412  0.5666
 
              Baa    -0.1102   -14.793    -5.278    -4.934  0.3687 -0.4828  0.7944
    39 C(13)  Bbb     0.0364     4.891     1.745     1.632 -0.0104  0.8524  0.5228
              Bcc     0.0738     9.901     3.533     3.303  0.9295  0.2010 -0.3092
 
              Baa    -0.3335    24.135     8.612     8.051  0.6361  0.6400  0.4309
    40 O(17)  Bbb    -0.3053    22.091     7.883     7.369  0.7403 -0.3491 -0.5745
              Bcc     0.6388   -46.227   -16.495   -15.420  0.2173 -0.6845  0.6959
 
              Baa    -0.0033    -1.767    -0.630    -0.589  0.9145  0.1097  0.3894
    41 H(1)   Bbb    -0.0007    -0.351    -0.125    -0.117 -0.3512  0.6931  0.6295
              Bcc     0.0040     2.118     0.756     0.707  0.2009  0.7124 -0.6724
 
              Baa    -0.0029    -1.545    -0.551    -0.515  0.9121  0.0441 -0.4076
    42 H(1)   Bbb    -0.0014    -0.763    -0.272    -0.254  0.3701 -0.5160  0.7725
              Bcc     0.0043     2.308     0.823     0.770  0.1763  0.8554  0.4870
 
              Baa    -0.0033    -1.771    -0.632    -0.591 -0.3209  0.0523  0.9457
    43 H(1)   Bbb    -0.0006    -0.329    -0.117    -0.110  0.6486  0.7397  0.1792
              Bcc     0.0039     2.100     0.749     0.700  0.6901 -0.6709  0.2713
 
              Baa    -0.0049    -2.636    -0.941    -0.879 -0.3731 -0.0329  0.9272
    44 H(1)   Bbb    -0.0007    -0.392    -0.140    -0.131  0.7330 -0.6231  0.2728
              Bcc     0.0057     3.028     1.080     1.010  0.5688  0.7814  0.2566
 
              Baa    -0.0049    -2.636    -0.941    -0.879  0.9405  0.0259  0.3388
    45 H(1)   Bbb    -0.0006    -0.329    -0.117    -0.110 -0.2360 -0.6677  0.7060
              Bcc     0.0056     2.966     1.058     0.989 -0.2445  0.7439  0.6219
 
              Baa    -0.0130    -6.921    -2.470    -2.309  0.8414  0.2711  0.4674
    46 H(1)   Bbb     0.0006     0.319     0.114     0.106 -0.4201  0.8723  0.2504
              Bcc     0.0124     6.602     2.356     2.202 -0.3399 -0.4071  0.8478
 
              Baa    -0.0131    -6.972    -2.488    -2.326 -0.2254  0.2240  0.9482
    47 H(1)   Bbb     0.0012     0.663     0.237     0.221  0.3753  0.9181 -0.1276
              Bcc     0.0118     6.309     2.251     2.104  0.8991 -0.3271  0.2910
 
              Baa    -0.0109    -5.835    -2.082    -1.946 -0.2410  0.7126 -0.6589
    48 H(1)   Bbb    -0.0048    -2.578    -0.920    -0.860 -0.3795  0.5557  0.7397
              Bcc     0.0158     8.413     3.002     2.806  0.8933  0.4283  0.1365
 
              Baa    -0.0113    -6.051    -2.159    -2.018 -0.3731  0.7233 -0.5811
    49 H(1)   Bbb    -0.0046    -2.431    -0.867    -0.811  0.7638  0.5950  0.2502
              Bcc     0.0159     8.482     3.026     2.829 -0.5267  0.3505  0.7745
 
              Baa    -0.0038    -2.052    -0.732    -0.685  0.8914  0.0791 -0.4463
    50 H(1)   Bbb    -0.0030    -1.594    -0.569    -0.532 -0.2676  0.8866 -0.3772
              Bcc     0.0068     3.646     1.301     1.216  0.3659  0.4557  0.8115
 
              Baa    -0.0026    -1.407    -0.502    -0.469  0.3949 -0.5033  0.7686
    51 H(1)   Bbb    -0.0017    -0.892    -0.318    -0.298  0.9015  0.0510 -0.4298
              Bcc     0.0043     2.299     0.820     0.767  0.1771  0.8626  0.4738
 

 ---------------------------------------------------------------------------------

 No NMR shielding tensors so no spin-rotation constants.
 Leave Link  601 at Sun Mar  3 17:36:02 2024, MaxMem=  5368709120 cpu:         5.0
 (Enter /home/k0335/k033513/app/g09/l9999.exe)
 1\1\GINC-C24U18N4\SP\UCAM-B3LYP\6-31G(d,p)\C15H11F18N3O4(1+,2)\K033513
 \03-Mar-2024\0\\#p CAM-B3LYP/6-31G(d,p) SCRF=(PCM,Solvent=Generic,Read
 ) NoSymm out=wfn\\Title A1635117081_p1\\1,2\C,0,-0.240977,6.051319,0.3
 75084\C,0,0.219125,4.907096,1.264097\C,0,-0.009659,3.552459,0.595896\C
 ,0,0.455204,2.402777,1.493919\N,0,0.235537,1.106643,0.84988\C,0,1.2576
 27,0.594439,0.069811\O,0,2.342947,1.153679,-0.058963\N,0,0.986263,-0.5
 91358,-0.561424\C,0,1.942844,-1.076892,-1.543798\F,0,1.338475,-2.07958
 7,-2.254124\F,0,2.108738,-0.095933,-2.470841\C,0,3.315162,-1.616876,-1
 .039265\F,0,4.049599,-2.048996,-2.113215\O,0,4.131102,-0.722022,-0.285
 66\C,0,4.977068,0.043634,-1.102782\F,0,5.441249,1.089247,-0.392094\F,0
 ,4.34405,0.500779,-2.19366\F,0,6.029615,-0.708449,-1.479185\C,0,2.9971
 32,-2.832489,-0.171435\F,0,4.130979,-3.42002,0.286617\F,0,2.26196,-2.5
 06315,0.919075\F,0,2.307143,-3.786169,-0.837569\C,0,-0.38426,-0.94777,
 -0.737792\N,0,-1.131459,-0.763838,0.467695\C,0,-2.453989,-1.381051,0.6
 17601\F,0,-2.744255,-1.365442,1.957055\F,0,-3.365942,-0.577678,0.01583
 8\C,0,-2.664875,-2.865609,0.176656\F,0,-1.431808,-3.481796,0.175905\O,
 0,-3.39894,-3.661469,1.121068\C,0,-4.776705,-3.384307,1.150804\F,0,-5.
 371046,-4.027767,0.132789\F,0,-5.006601,-2.069164,1.046215\F,0,-5.2874
 69,-3.83322,2.309351\C,0,-3.205871,-2.884543,-1.257624\F,0,-4.421086,-
 2.312089,-1.376092\F,0,-3.321312,-4.154278,-1.713968\F,0,-2.382361,-2.
 234065,-2.113097\C,0,-0.97691,0.466316,1.085584\O,0,-1.842919,0.963395
 ,1.801594\H,0,0.3067,6.056356,-0.572739\H,0,-0.068115,7.010848,0.87239
 7\H,0,-1.310104,5.970928,0.154069\H,0,1.283696,5.034709,1.492273\H,0,-
 0.324322,4.949709,2.215149\H,0,0.528233,3.51584,-0.359606\H,0,-1.07434
 5,3.430979,0.360835\H,0,1.519925,2.521098,1.727261\H,0,-0.080774,2.435
 683,2.449712\H,0,-0.817559,-0.330079,-1.533295\H,0,-0.41671,-1.998664,
 -1.016005\\Version=ES64L-G09RevD.01\HF=-2839.3734526\S2=0.764885\S2-1=
 0.\S2A=0.750157\RMSD=7.216e-09\Dipole=-0.3451533,4.1371054,0.8909951\Q
 uadrupole=-10.2201806,16.466471,-6.2462904,4.1706586,3.1216506,7.97366
 44\PG=C01 [X(C15H11F18N3O4)]\\@

 Writing a WFN file to "A1635117081/A1635117081_p1.wfn"


 THERE'S NOTHING WRONG WITH FOLLOWING A TRAIN OF THOUGHT...
 AS LONG AS IT ULTIMATELY PULLS INTO THE STATION.
 Job cpu time:       0 days  1 hours 21 minutes 49.4 seconds.
 File lengths (MBytes):  RWF=    660 Int=      0 D2E=      0 Chk=     22 Scr=      1
 Normal termination of Gaussian 09 at Sun Mar  3 17:36:02 2024.
