 Entering Gaussian System, Link 0=g09
 Initial command:
 /home/k0335/k033513/app/g09/l1.exe "/home/k0335/k033513/app/g09/scratch/Gau-2962018.inp" -scrdir="/home/k0335/k033513/app/g09/scratch/"
 Default is to use a total of  36 processors:
                               36 via shared-memory
                                1 via Linda
 Entering Link 1 = /home/k0335/k033513/app/g09/l1.exe PID=   2962019.
  
 Copyright (c) 1988,1990,1992,1993,1995,1998,2003,2009,2013,
            Gaussian, Inc.  All Rights Reserved.
  
 This is part of the Gaussian(R) 09 program.  It is based on
 the Gaussian(R) 03 system (copyright 2003, Gaussian, Inc.),
 the Gaussian(R) 98 system (copyright 1998, Gaussian, Inc.),
 the Gaussian(R) 94 system (copyright 1995, Gaussian, Inc.),
 the Gaussian 92(TM) system (copyright 1992, Gaussian, Inc.),
 the Gaussian 90(TM) system (copyright 1990, Gaussian, Inc.),
 the Gaussian 88(TM) system (copyright 1988, Gaussian, Inc.),
 the Gaussian 86(TM) system (copyright 1986, Carnegie Mellon
 University), and the Gaussian 82(TM) system (copyright 1983,
 Carnegie Mellon University). Gaussian is a federally registered
 trademark of Gaussian, Inc.
  
 This software contains proprietary and confidential information,
 including trade secrets, belonging to Gaussian, Inc.
  
 This software is provided under written license and may be
 used, copied, transmitted, or stored only in accord with that
 written license.
  
 The following legend is applicable only to US Government
 contracts under FAR:
  
                    RESTRICTED RIGHTS LEGEND
  
 Use, reproduction and disclosure by the US Government is
 subject to restrictions as set forth in subparagraphs (a)
 and (c) of the Commercial Computer Software - Restricted
 Rights clause in FAR 52.227-19.
  
 Gaussian, Inc.
 340 Quinnipiac St., Bldg. 40, Wallingford CT 06492
  
  
 ---------------------------------------------------------------
 Warning -- This program may not be used in any manner that
 competes with the business of Gaussian, Inc. or will provide
 assistance to any competitor of Gaussian, Inc.  The licensee
 of this program is prohibited from giving any competitor of
 Gaussian, Inc. access to this program.  By using this program,
 the user acknowledges that Gaussian, Inc. is engaged in the
 business of creating and licensing software in the field of
 computational chemistry and represents and warrants to the
 licensee that it is not a competitor of Gaussian, Inc. and that
 it will not use this program in any manner prohibited above.
 ---------------------------------------------------------------
  

 Cite this work as:
 Gaussian 09, Revision D.01,
 M. J. Frisch, G. W. Trucks, H. B. Schlegel, G. E. Scuseria, 
 M. A. Robb, J. R. Cheeseman, G. Scalmani, V. Barone, B. Mennucci, 
 G. A. Petersson, H. Nakatsuji, M. Caricato, X. Li, H. P. Hratchian, 
 A. F. Izmaylov, J. Bloino, G. Zheng, J. L. Sonnenberg, M. Hada, 
 M. Ehara, K. Toyota, R. Fukuda, J. Hasegawa, M. Ishida, T. Nakajima, 
 Y. Honda, O. Kitao, H. Nakai, T. Vreven, J. A. Montgomery, Jr., 
 J. E. Peralta, F. Ogliaro, M. Bearpark, J. J. Heyd, E. Brothers, 
 K. N. Kudin, V. N. Staroverov, T. Keith, R. Kobayashi, J. Normand, 
 K. Raghavachari, A. Rendell, J. C. Burant, S. S. Iyengar, J. Tomasi, 
 M. Cossi, N. Rega, J. M. Millam, M. Klene, J. E. Knox, J. B. Cross, 
 V. Bakken, C. Adamo, J. Jaramillo, R. Gomperts, R. E. Stratmann, 
 O. Yazyev, A. J. Austin, R. Cammi, C. Pomelli, J. W. Ochterski, 
 R. L. Martin, K. Morokuma, V. G. Zakrzewski, G. A. Voth, 
 P. Salvador, J. J. Dannenberg, S. Dapprich, A. D. Daniels, 
 O. Farkas, J. B. Foresman, J. V. Ortiz, J. Cioslowski, 
 and D. J. Fox, Gaussian, Inc., Wallingford CT, 2013.
 
 ******************************************
 Gaussian 09:  ES64L-G09RevD.01 24-Apr-2013
                 3-Feb-2025 
 ******************************************
 %nprocshared=24
 Will use up to   24 processors via shared memory.
 %mem=40GB
 %rwf=cytop/OA1/OA1_neu.rwf
 %nosave
 %chk=cytop/OA1/OA1_neu.chk
 ----------------------------------------------------------------------
 #p CAM-B3LYP/6-31G(d,p) SCRF=(PCM,Solvent=Generic,Read) NoSymm out=wfn
 ----------------------------------------------------------------------
 1/38=1,40=2/1;
 2/12=2,15=1,17=6,18=5,40=1/2;
 3/5=1,6=6,7=101,11=2,16=1,25=1,30=1,70=2203,72=-2,74=-40/1,2,3;
 4//1;
 5/5=2,38=5/2;
 6/7=2,8=2,9=2,10=2,28=1/1;
 99/5=1,6=100,9=1/99;
 Leave Link    1 at Mon Feb  3 21:50:38 2025, MaxMem=  5368709120 cpu:         2.7
 (Enter /home/k0335/k033513/app/g09/l101.exe)
 -------------
 Title OA1_neu
 -------------
 Symbolic Z-matrix:
 Charge =  0 Multiplicity = 1
 F                    -6.84147   2.07096   1.87652 
 C                    -6.17281   1.56737   0.82129 
 F                    -6.79601   1.99977  -0.29833 
 C                    -6.05229   0.05794   0.85295 
 F                    -5.7944   -0.38892   2.10055 
 F                    -7.15164  -0.58796   0.42181 
 C                    -4.86921  -0.11744  -0.0429 
 F                    -5.27544   0.18395  -1.32508 
 C                    -4.29012  -1.49817  -0.03605 
 F                    -3.92242  -1.82776   1.22874 
 C                    -5.27921  -2.50652  -0.61497 
 O                    -6.02056  -3.13567   0.32388 
 O                    -5.46601  -2.75364  -1.79642 
 F                    -3.13824  -1.47139  -0.76745 
 C                    -3.96726   1.02712   0.42251 
 F                    -3.27628   1.49568  -0.65984 
 C                    -2.96327   0.82873   1.58288 
 F                    -2.60585   2.07929   2.03833 
 C                    -1.67248   0.10203   1.15637 
 N                    -0.77551   0.88474   0.44276 
 C                     0.52985   0.36982   0.07528 
 C                     1.17636   1.23478  -1.002 
 C                     2.50515   0.67503  -1.51483 
 C                     3.60587   0.65642  -0.45187 
 C                     4.93976   0.19218  -1.04355 
 C                     6.0389    0.16691   0.02103 
 C                     7.41752  -0.18929  -0.53922 
 C                     7.50614  -1.60892  -1.07758 
 O                    -1.44562  -1.07743   1.41498 
 F                    -3.58408   0.24309   2.64111 
 O                    -4.8612    2.11879   0.78797 
 H                    -6.60152  -3.75134  -0.17434 
 H                    -0.87592   1.89276   0.52874 
 H                     1.13408   0.35329   0.98808 
 H                     0.41698  -0.66253  -0.27428 
 H                     1.32439   2.25333  -0.62187 
 H                     0.48697   1.32214  -1.85164 
 H                     2.35058  -0.33792  -1.90605 
 H                     2.83319   1.29301  -2.35989 
 H                     3.32551  -0.01458   0.36778 
 H                     3.7224    1.66035  -0.02623 
 H                     5.23358   0.86421  -1.85883 
 H                     4.81142  -0.80689  -1.47496 
 H                     6.10568   1.15611   0.4908 
 H                     5.77017  -0.5416    0.81406 
 H                     7.69372   0.51849  -1.32941 
 H                     8.15762  -0.07428   0.26173 
 H                     7.20395  -2.33702  -0.31825 
 H                     8.53603  -1.83478  -1.37236 
 H                     6.87302  -1.74421  -1.95925 
 
 NAtoms=     50 NQM=       50 NQMF=       0 NMMI=      0 NMMIF=      0
                NMic=       0 NMicF=      0.
                    Isotopes and Nuclear Properties:
 (Nuclear quadrupole moments (NQMom) in fm**2, nuclear magnetic moments (NMagM)
  in nuclear magnetons)

  Atom         1           2           3           4           5           6           7           8           9          10
 IAtWgt=          19          12          19          12          19          19          12          19          12          19
 AtmWgt=  18.9984033  12.0000000  18.9984033  12.0000000  18.9984033  18.9984033  12.0000000  18.9984033  12.0000000  18.9984033
 NucSpn=           1           0           1           0           1           1           0           1           0           1
 AtZEff=   0.0000000   0.0000000   0.0000000   0.0000000   0.0000000   0.0000000   0.0000000   0.0000000   0.0000000   0.0000000
 NQMom=    0.0000000   0.0000000   0.0000000   0.0000000   0.0000000   0.0000000   0.0000000   0.0000000   0.0000000   0.0000000
 NMagM=    2.6288670   0.0000000   2.6288670   0.0000000   2.6288670   2.6288670   0.0000000   2.6288670   0.0000000   2.6288670
 AtZNuc=   9.0000000   6.0000000   9.0000000   6.0000000   9.0000000   9.0000000   6.0000000   9.0000000   6.0000000   9.0000000

  Atom        11          12          13          14          15          16          17          18          19          20
 IAtWgt=          12          16          16          19          12          19          12          19          12          14
 AtmWgt=  12.0000000  15.9949146  15.9949146  18.9984033  12.0000000  18.9984033  12.0000000  18.9984033  12.0000000  14.0030740
 NucSpn=           0           0           0           1           0           1           0           1           0           2
 AtZEff=   0.0000000   0.0000000   0.0000000   0.0000000   0.0000000   0.0000000   0.0000000   0.0000000   0.0000000   0.0000000
 NQMom=    0.0000000   0.0000000   0.0000000   0.0000000   0.0000000   0.0000000   0.0000000   0.0000000   0.0000000   2.0440000
 NMagM=    0.0000000   0.0000000   0.0000000   2.6288670   0.0000000   2.6288670   0.0000000   2.6288670   0.0000000   0.4037610
 AtZNuc=   6.0000000   8.0000000   8.0000000   9.0000000   6.0000000   9.0000000   6.0000000   9.0000000   6.0000000   7.0000000

  Atom        21          22          23          24          25          26          27          28          29          30
 IAtWgt=          12          12          12          12          12          12          12          12          16          19
 AtmWgt=  12.0000000  12.0000000  12.0000000  12.0000000  12.0000000  12.0000000  12.0000000  12.0000000  15.9949146  18.9984033
 NucSpn=           0           0           0           0           0           0           0           0           0           1
 AtZEff=   0.0000000   0.0000000   0.0000000   0.0000000   0.0000000   0.0000000   0.0000000   0.0000000   0.0000000   0.0000000
 NQMom=    0.0000000   0.0000000   0.0000000   0.0000000   0.0000000   0.0000000   0.0000000   0.0000000   0.0000000   0.0000000
 NMagM=    0.0000000   0.0000000   0.0000000   0.0000000   0.0000000   0.0000000   0.0000000   0.0000000   0.0000000   2.6288670
 AtZNuc=   6.0000000   6.0000000   6.0000000   6.0000000   6.0000000   6.0000000   6.0000000   6.0000000   8.0000000   9.0000000

  Atom        31          32          33          34          35          36          37          38          39          40
 IAtWgt=          16           1           1           1           1           1           1           1           1           1
 AtmWgt=  15.9949146   1.0078250   1.0078250   1.0078250   1.0078250   1.0078250   1.0078250   1.0078250   1.0078250   1.0078250
 NucSpn=           0           1           1           1           1           1           1           1           1           1
 AtZEff=   0.0000000   0.0000000   0.0000000   0.0000000   0.0000000   0.0000000   0.0000000   0.0000000   0.0000000   0.0000000
 NQMom=    0.0000000   0.0000000   0.0000000   0.0000000   0.0000000   0.0000000   0.0000000   0.0000000   0.0000000   0.0000000
 NMagM=    0.0000000   2.7928460   2.7928460   2.7928460   2.7928460   2.7928460   2.7928460   2.7928460   2.7928460   2.7928460
 AtZNuc=   8.0000000   1.0000000   1.0000000   1.0000000   1.0000000   1.0000000   1.0000000   1.0000000   1.0000000   1.0000000

  Atom        41          42          43          44          45          46          47          48          49          50
 IAtWgt=           1           1           1           1           1           1           1           1           1           1
 AtmWgt=   1.0078250   1.0078250   1.0078250   1.0078250   1.0078250   1.0078250   1.0078250   1.0078250   1.0078250   1.0078250
 NucSpn=           1           1           1           1           1           1           1           1           1           1
 AtZEff=   0.0000000   0.0000000   0.0000000   0.0000000   0.0000000   0.0000000   0.0000000   0.0000000   0.0000000   0.0000000
 NQMom=    0.0000000   0.0000000   0.0000000   0.0000000   0.0000000   0.0000000   0.0000000   0.0000000   0.0000000   0.0000000
 NMagM=    2.7928460   2.7928460   2.7928460   2.7928460   2.7928460   2.7928460   2.7928460   2.7928460   2.7928460   2.7928460
 AtZNuc=   1.0000000   1.0000000   1.0000000   1.0000000   1.0000000   1.0000000   1.0000000   1.0000000   1.0000000   1.0000000
 Leave Link  101 at Mon Feb  3 21:50:38 2025, MaxMem=  5368709120 cpu:         0.8
 (Enter /home/k0335/k033513/app/g09/l202.exe)
                          Input orientation:                          
 ---------------------------------------------------------------------
 Center     Atomic      Atomic             Coordinates (Angstroms)
 Number     Number       Type             X           Y           Z
 ---------------------------------------------------------------------
      1          9           0       -6.841474    2.070955    1.876523
      2          6           0       -6.172812    1.567368    0.821287
      3          9           0       -6.796009    1.999771   -0.298334
      4          6           0       -6.052291    0.057943    0.852951
      5          9           0       -5.794403   -0.388922    2.100550
      6          9           0       -7.151640   -0.587964    0.421814
      7          6           0       -4.869208   -0.117438   -0.042901
      8          9           0       -5.275441    0.183950   -1.325079
      9          6           0       -4.290116   -1.498171   -0.036053
     10          9           0       -3.922419   -1.827763    1.228735
     11          6           0       -5.279212   -2.506522   -0.614965
     12          8           0       -6.020558   -3.135674    0.323878
     13          8           0       -5.466014   -2.753635   -1.796416
     14          9           0       -3.138239   -1.471393   -0.767454
     15          6           0       -3.967260    1.027124    0.422508
     16          9           0       -3.276275    1.495675   -0.659835
     17          6           0       -2.963265    0.828733    1.582877
     18          9           0       -2.605846    2.079290    2.038331
     19          6           0       -1.672478    0.102028    1.156374
     20          7           0       -0.775511    0.884744    0.442755
     21          6           0        0.529846    0.369817    0.075277
     22          6           0        1.176363    1.234779   -1.001998
     23          6           0        2.505151    0.675033   -1.514830
     24          6           0        3.605867    0.656417   -0.451872
     25          6           0        4.939758    0.192176   -1.043552
     26          6           0        6.038896    0.166905    0.021034
     27          6           0        7.417516   -0.189290   -0.539217
     28          6           0        7.506143   -1.608916   -1.077579
     29          8           0       -1.445618   -1.077433    1.414979
     30          9           0       -3.584079    0.243087    2.641114
     31          8           0       -4.861204    2.118794    0.787974
     32          1           0       -6.601516   -3.751338   -0.174344
     33          1           0       -0.875918    1.892759    0.528742
     34          1           0        1.134081    0.353289    0.988078
     35          1           0        0.416982   -0.662528   -0.274284
     36          1           0        1.324386    2.253334   -0.621874
     37          1           0        0.486972    1.322140   -1.851637
     38          1           0        2.350583   -0.337923   -1.906052
     39          1           0        2.833194    1.293014   -2.359887
     40          1           0        3.325506   -0.014579    0.367779
     41          1           0        3.722397    1.660348   -0.026232
     42          1           0        5.233576    0.864211   -1.858833
     43          1           0        4.811415   -0.806891   -1.474959
     44          1           0        6.105676    1.156105    0.490798
     45          1           0        5.770168   -0.541602    0.814057
     46          1           0        7.693717    0.518489   -1.329409
     47          1           0        8.157621   -0.074284    0.261729
     48          1           0        7.203950   -2.337017   -0.318249
     49          1           0        8.536026   -1.834783   -1.372362
     50          1           0        6.873015   -1.744212   -1.959253
 ---------------------------------------------------------------------
                    Distance matrix (angstroms):
                    1          2          3          4          5
     1  F    0.000000
     2  C    1.346934   0.000000
     3  F    2.176497   1.352368   0.000000
     4  C    2.392222   1.514560   2.376819   0.000000
     5  F    2.682823   2.367864   3.530398   1.350073   0.000000
     6  F    3.046675   2.400654   2.709513   1.345973   2.167917
     7  C    3.516118   2.298864   2.874088   1.494321   2.350334
     8  F    4.032803   2.706660   2.581383   2.315856   3.511757
     9  C    4.786025   3.698257   4.310904   2.513380   2.838729
    10  F    4.913300   4.093556   5.023890   2.869400   2.516873
    11  C    5.440723   4.411113   4.765250   3.054326   3.481907
    12  O    5.494870   4.731723   5.230800   3.237301   3.279079
    13  O    6.217639   5.101274   5.158295   3.907408   4.570126
    14  F    5.766523   4.578952   5.064418   3.668280   4.056156
    15  C    3.385978   2.305504   3.076926   2.339219   2.856477
    16  F    4.413015   3.254042   3.573979   3.473019   4.184782
    17  C    4.082873   3.380354   4.427213   3.266342   3.125062
    18  F    4.238726   3.803486   4.798311   4.167608   4.032721
    19  C    5.577975   4.744735   5.654040   4.390532   4.257084
    20  N    6.344974   5.453450   6.167568   5.356890   5.436891
    21  C    7.776549   6.849546   7.514286   6.635252   6.683827
    22  C    8.559835   7.579272   8.039843   7.555079   7.800884
    23  C   10.040382   9.031099   9.473456   8.900393   9.115129
    24  C   10.796725   9.903198  10.489385   9.764259   9.796564
    25  C   12.282267  11.351563  11.897520  11.155263  11.200235
    26  C   13.151889  12.317772  12.969047  12.120262  12.027481
    27  C   14.637736  13.770760  14.383126  13.543816  13.474533
    28  C   15.103718  14.170684  14.770965  13.796249  13.729290
    29  O    6.264234   5.449202   6.405569   4.777697   4.456006
    30  F    3.812653   3.430310   4.694975   3.053502   2.361605
    31  O    2.260243   1.423199   2.222094   2.381180   2.980328
    32  H    6.177599   5.428048   5.755732   3.983416   4.139132
    33  H    6.118507   5.314936   5.978544   5.501500   5.645188
    34  H    8.206655   7.408947   8.200737   7.193708   7.056370
    35  H    8.048794   7.042592   7.688670   6.606151   6.655524
    36  H    8.541459   7.665588   8.130793   7.836467   8.066614
    37  H    8.256272   7.180347   7.477549   7.188529   7.615982
    38  H   10.227633   9.149687   9.576519   8.853084   9.077238
    39  H   10.590163   9.555275   9.872743   9.528881   9.856969
    40  H   10.487766   9.639827  10.341488   9.390619   9.290606
    41  H   10.741715   9.931873  10.527398   9.944103   9.964547
    42  H   12.697084  11.738107  12.183414  11.635061  11.784031
    43  H   12.462113  11.470096  11.999754  11.143932  11.200104
    44  H   13.053194  12.289818  12.953300  12.212832  12.107448
    45  H   12.923150  12.127761  12.868753  11.837715  11.636910
    46  H   14.965291  14.071470  14.601694  13.925787  13.946949
    47  H   15.237535  14.435007  15.107165  14.222821  14.076194
    48  H   14.883587  13.981435  14.656295  13.521667  13.364237
    49  H   16.194985  15.255709  15.840727  14.877951  14.815965
    50  H   14.742994  13.743783  14.269488  13.349898  13.370949
                    6          7          8          9         10
     6  F    0.000000
     7  C    2.376310   0.000000
     8  F    2.677239   1.378347   0.000000
     9  C    3.037505   1.497270   2.337089   0.000000
    10  F    3.551914   2.332098   3.521310   1.357763   0.000000
    11  C    2.874328   2.490599   2.782610   1.526506   2.387641
    12  O    2.789223   3.251136   3.780762   2.409439   2.632790
    13  O    3.528741   3.221883   2.981255   2.461261   3.520151
    14  F    4.278106   2.313963   2.760206   1.364729   2.174099
    15  C    3.570544   1.529751   2.340158   2.586818   2.966883
    16  F    4.531001   2.349506   2.481902   3.221815   3.876782
    17  C    4.571387   2.677875   3.770691   3.129848   2.846465
    18  F    5.512859   3.778882   4.693781   4.465206   4.201651
    19  C    5.571076   3.421331   4.375576   3.291587   2.965057
    20  N    6.544030   4.242474   4.885255   4.273171   4.228296
    21  C    7.748720   5.422284   5.974688   5.170475   5.097302
    22  C    8.643221   6.268755   6.544799   6.187444   6.352394
    23  C    9.929721   7.561465   7.798383   7.285963   7.423260
    24  C   10.864427   8.520153   8.936630   8.195224   8.103745
    25  C   12.204828   9.864734  10.219081   9.437314   9.369185
    26  C   13.218195  10.911997  11.394145  10.462515  10.230593
    27  C   14.606260  12.296954  12.722737  11.791310  11.593290
    28  C   14.769601  12.507773  12.909087  11.842667  11.661004
    29  O    5.812456   3.842912   4.875095   3.220820   2.594653
    30  F    4.282923   2.997578   4.312179   3.270732   2.529369
    31  O    3.564647   2.385613   2.894859   3.753345   4.080551
    32  H    3.265727   4.027828   4.309195   3.230860   3.584178
    33  H    6.749082   4.507109   5.070748   4.845013   4.859366
    34  H    8.358217   6.109336   6.816256   5.822256   5.512086
    35  H    7.600931   5.319254   5.850160   4.786630   4.737852
    36  H    9.000293   6.657055   6.952306   6.777876   6.899933
    37  H    8.195454   5.833745   5.897300   5.837043   6.233242
    38  H    9.786405   7.459580   7.665907   6.995853   7.169175
    39  H   10.534365   8.166076   8.249292   7.995778   8.261705
    40  H   10.492963   8.205643   8.768208   7.769287   7.520725
    41  H   11.113070   8.773624   9.210203   8.612590   8.496180
    42  H   12.676898  10.311522  10.544529   9.980185  10.030556
    43  H   12.114469   9.810229  10.136513   9.240465   9.199565
    44  H   13.371723  11.061412  11.565998  10.742218  10.488599
    45  H   12.927843  10.682257  11.274210  10.141352   9.786338
    46  H   14.989184  12.644627  12.973473  12.220963  12.123680
    47  H   15.318713  13.030462  13.528925  12.532449  12.244883
    48  H   14.480671  12.278579  12.771225  11.528090  11.244936
    49  H   15.839081  13.580024  13.958300  12.899959  12.727082
    50  H   14.272258  12.008272  12.316857  11.330257  11.256627
                   11         12         13         14         15
    11  C    0.000000
    12  O    1.351611   0.000000
    13  O    1.221387   2.224662   0.000000
    14  F    2.382963   3.502656   2.849815   0.000000
    15  C    3.909504   4.642698   4.632928   2.888922   0.000000
    16  F    4.475640   5.472492   4.913594   2.972226   1.366919
    17  C    4.617147   5.162232   5.524195   3.293213   1.547198
    18  F    5.934352   6.464941   6.800221   4.556668   2.360378
    19  C    4.790689   5.484666   5.591484   2.885346   2.580772
    20  N    5.736094   6.609721   6.344486   3.549432   3.194987
    21  C    6.518812   7.433577   7.014950   4.189880   4.558134
    22  C    7.471384   8.523760   7.788435   5.098448   5.341273
    23  C    8.457444   9.517880   8.681850   6.083878   6.765305
    24  C    9.432678  10.375442   9.784441   7.078851   7.632445
    25  C   10.577996  11.535726  10.840881   8.252135   9.065398
    26  C   11.646943  12.507165  12.008149   9.355509  10.051085
    27  C   12.906673  13.784337  13.196278  10.635781  11.489896
    28  C   12.825171  13.684543  13.042391  10.649787  11.867516
    29  O    4.567210   5.133900   5.411681   2.789836   3.431157
    30  F    4.586488   4.766764   5.675711   3.841426   2.384063
    31  O    4.851445   5.400826   5.548462   4.275208   1.457547
    32  H    1.868743   0.982232   2.217181   4.188582   5.489010
    33  H    6.328565   7.196835   6.932843   4.256259   3.212009
    34  H    7.202680   7.987671   7.808178   4.966294   5.176640
    35  H    5.996916   6.922151   6.426450   3.679277   4.749950
    36  H    8.140257   9.158824   8.518146   5.814620   5.531351
    37  H    7.031137   8.182476   7.214779   4.703343   5.009885
    38  H    8.036386   9.103626   8.182107   5.719119   6.870275
    39  H    9.126465  10.256939   9.250390   6.770214   7.352455
    40  H    9.012033   9.853531   9.459228   6.722430   7.366992
    41  H    9.936719  10.865062  10.346192   7.577964   7.728723
    42  H   11.109805  12.141616  11.294863   8.759763   9.480846
    43  H   10.268841  11.224557  10.465118   8.008691   9.166740
    44  H   12.010546  12.864400  12.426642   9.692105  10.073993
    45  H   11.313347  12.082661  11.745614   9.095351   9.870751
    46  H   13.340090  14.288723  13.568471  11.027543  11.802809
    47  H   13.683306  14.505059  14.036321  11.428368  12.175865
    48  H   12.487838  13.264154  12.762701  10.388068  11.690257
    49  H   13.852281  14.712705  14.038562  11.695573  12.951611
    50  H   12.250096  13.167881  12.381320  10.085634  11.439609
                   16         17         18         19         20
    16  F    0.000000
    17  C    2.360624   0.000000
    18  F    2.840806   1.378071   0.000000
    19  C    2.795180   1.541472   2.357666   0.000000
    20  N    2.800493   2.467647   2.706091   1.387965   0.000000
    21  C    4.036645   3.832139   4.075346   2.467937   1.450568
    22  C    4.473380   4.897241   4.925637   3.749345   2.453497
    23  C    5.901640   6.286731   6.381158   4.991618   3.826076
    24  C    6.936244   6.879200   6.841861   5.545695   4.477607
    25  C    8.327638   8.352311   8.366322   6.969180   5.945844
    26  C    9.434067   9.160583   9.080653   7.794774   6.865077
    27  C   10.826395  10.644260  10.595187   9.251372   8.321269
    28  C   11.228247  11.073783  11.205538   9.600258   8.781546
    29  O    3.778497   2.442317   3.420467   1.228605   2.290066
    30  F    3.544007   1.359506   2.166086   2.424576   3.623887
    31  O    2.235269   2.428642   2.579068   3.790915   4.281932
    32  H    6.230897   6.107516   7.406587   6.396456   7.471038
    33  H    2.707786   2.569118   2.303542   2.057947   1.016646
    34  H    4.844781   4.167503   4.250784   2.822805   2.055812
    35  H    4.294955   4.135091   4.690761   2.645217   2.080922
    36  H    4.662786   5.027362   4.749074   4.095299   2.723241
    37  H    3.951270   4.893207   5.026992   3.898721   2.655073
    38  H    6.047865   6.463025   6.779916   5.075138   4.096861
    39  H    6.344829   7.025659   7.038871   5.838118   4.587400
    40  H    6.849845   6.460362   6.508146   5.061158   4.199136
    41  H    7.029223   6.926680   6.669677   5.738606   4.588321
    42  H    8.617071   8.890153   8.838600   7.574033   6.434816
    43  H    8.448489   8.513006   8.699943   7.056268   6.144347
    44  H    9.458344   9.140323   8.895940   7.877420   6.886703
    45  H    9.389408   8.873655   8.861463   7.478263   6.709563
    46  H   11.033764  11.052101  10.948003   9.699390   8.660400
    47  H   11.577911  11.235434  11.119641   9.872301   8.986287
    48  H   11.164288  10.817047  11.013144   9.322791   8.638904
    49  H   12.293498  12.168050  12.292034  10.693891   9.868901
    50  H   10.732821  10.766575  10.974910   9.281228   8.436883
                   21         22         23         24         25
    21  C    0.000000
    22  C    1.525341   0.000000
    23  C    2.554100   1.530356   0.000000
    24  C    3.133996   2.557270   1.530295   0.000000
    25  C    4.553093   3.905367   2.526374   1.531297   0.000000
    26  C    5.513052   5.082438   3.886441   2.526439   1.530388
    27  C    6.937593   6.418265   5.082342   3.905319   2.557177
    28  C    7.342560   6.939627   5.515209   4.553613   3.135510
    29  O    2.791378   4.250045   5.221446   5.657638   6.959117
    30  F    4.850150   6.075979   7.384929   7.837903   9.286288
    31  O    5.712292   6.359064   7.851786   8.681420  10.155058
    32  H    8.240301   9.275871  10.213768  11.121870  12.227339
    33  H    2.121593   2.643475   4.134086   4.751478   6.259886
    34  H    1.094796   2.176974   2.871916   2.876642   4.317019
    35  H    1.095750   2.169332   2.772810   3.455451   4.666669
    36  H    2.159849   1.097205   2.163934   2.790018   4.182953
    37  H    2.149827   1.097624   2.145981   3.482820   4.664453
    38  H    2.782381   2.160902   1.096825   2.163120   2.780061
    39  H    3.476741   2.142975   1.097103   2.154716   2.717019
    40  H    2.837082   2.838309   2.166279   1.095749   2.154162
    41  H    3.445019   2.759623   2.160661   1.096643   2.161582
    42  H    5.109822   4.163228   2.756525   2.161517   1.096651
    43  H    4.703159   4.195916   2.741631   2.154373   1.095773
    44  H    5.646307   5.150996   4.149428   2.717970   2.154705
    45  H    5.370052   5.249441   4.190973   2.778853   2.163035
    46  H    7.301801   6.564768   5.194238   4.183254   2.787918
    47  H    7.642967   7.214473   5.972274   4.664935   3.482729
    48  H    7.212869   7.039676   5.708149   4.682382   3.471231
    49  H    8.429403   7.982733   6.533829   5.599986   4.141234
    50  H    6.988864   6.499428   5.012833   4.325445   2.885410
                   26         27         28         29         30
    26  C    0.000000
    27  C    1.530147   0.000000
    28  C    2.552118   1.520864   0.000000
    29  O    7.714234   9.119365   9.307489   0.000000
    30  F    9.973579  11.460216  11.842788   2.796461   0.000000
    31  O   11.100011  12.564062  13.050953   4.719664   2.929753
    32  H   13.235211  14.469090  14.297967   6.021545   5.743445
    33  H    7.144998   8.617222   9.225017   3.151510   3.810206
    34  H    5.002712   6.489112   6.979997   2.980613   5.000571
    35  H    5.690438   7.021511   7.197023   2.548536   5.032710
    36  H    5.195490   6.565019   7.303339   4.787035   6.227456
    37  H    5.972045   7.213827   7.645850   4.490394   6.158135
    38  H    4.191917   5.250156   5.374159   5.097770   7.498967
    39  H    4.148907   5.150541   5.648182   6.178743   8.203277
    40  H    2.741469   4.194963   4.701989   4.998991   7.278517
    41  H    2.756587   4.163919   5.109809   6.023364   7.906197
    42  H    2.160712   2.760588   3.448373   7.687617   9.918990
    43  H    2.166329   2.837042   2.839492   6.897492   9.408976
    44  H    1.097112   2.142882   3.473680   7.928735   9.967387
    45  H    1.096851   2.160840   2.780478   7.260564   9.563253
    46  H    2.164657   1.096194   2.150454   9.675023  11.959498
    47  H    2.145950   1.096584   2.138519   9.724119  11.984562
    48  H    2.782461   2.169601   1.094547   8.910985  11.480259
    49  H    3.490554   2.157045   1.094793  10.391153  12.935319
    50  H    2.875702   2.175032   1.093849   9.001649  11.595842
                   31         32         33         34         35
    31  O    0.000000
    32  H    6.197838   0.000000
    33  H    4.000100   8.070479   0.000000
    34  H    6.253039   8.833949   2.573141   0.000000
    35  H    6.059983   7.668771   2.974211   1.771912   0.000000
    36  H    6.345652   9.953707   2.509038   2.497665   3.073508
    37  H    6.017075   8.876945   2.801657   3.069431   2.536109
    38  H    8.081034   9.736031   4.616760   3.214598   2.550852
    39  H    8.354322  10.919516   4.739344   3.870263   3.743256
    40  H    8.470541  10.620877   4.616905   2.307042   3.048212
    41  H    8.634310  11.657249   4.637511   3.071906   4.047598
    42  H   10.511144  12.814453   6.639604   5.017151   5.295404
    43  H   10.355678  11.858177   6.606715   4.575517   4.557796
    44  H   11.013062  13.638113   7.020453   5.060490   6.021131
    45  H   10.959218  12.819435   7.083642   4.724872   5.464038
    46  H   12.832394  14.963933   8.875809   6.958941   7.447077
    47  H   13.212734  15.216537   9.249075   7.073932   7.781442
    48  H   12.909141  13.878469   9.159294   6.766650   6.990621
    49  H   14.134482  15.305346  10.300168   8.071439   8.276402
    50  H   12.655511  13.739630   8.914238   6.783925   6.759403
                   36         37         38         39         40
    36  H    0.000000
    37  H    1.755193   0.000000
    38  H    3.068682   2.496361   0.000000
    39  H    2.493874   2.400817   1.760351   0.000000
    40  H    3.182346   3.843163   2.495062   3.064691   0.000000
    41  H    2.541039   3.730210   3.067358   2.524195   1.765828
    42  H    4.329145   4.768648   3.123941   2.489329   3.061177
    43  H    4.717213   4.834818   2.541941   3.017624   2.496271
    44  H    5.030177   6.089697   4.698695   4.342152   3.019103
    45  H    5.444129   6.204161   4.374247   4.697398   2.540333
    46  H    6.639177   7.270196   5.441970   5.028564   4.716553
    47  H    7.272665   8.078067   6.204069   6.090312   4.833647
    48  H    7.465439   7.801186   5.483855   6.037294   4.572382
    49  H    8.323682   8.659280   6.386323   6.578800   5.787119
    50  H    6.968231   7.084888   4.736335   5.070050   4.581651
                   41         42         43         44         45
    41  H    0.000000
    42  H    2.505179   0.000000
    43  H    3.061379   1.765832   0.000000
    44  H    2.490301   2.523198   3.064746   0.000000
    45  H    3.122184   3.067341   2.495832   1.760475   0.000000
    46  H    4.332839   2.540100   3.175765   2.498316   3.068922
    47  H    4.771067   3.731969   3.840559   2.403499   2.494671
    48  H    5.308994   4.062466   3.066511   3.750022   2.561516
    49  H    6.099101   4.292715   3.865206   4.280581   3.755358
    50  H    5.025335   3.082485   2.315881   3.873422   3.217731
                   46         47         48         49         50
    46  H    0.000000
    47  H    1.760201   0.000000
    48  H    3.068588   2.523058   0.000000
    49  H    2.499844   2.431625   1.771389   0.000000
    50  H    2.487985   3.061312   1.775903   1.765857   0.000000
 Symmetry turned off by external request.
 Stoichiometry    C16H19F10NO4
 Framework group  C1[X(C16H19F10NO4)]
 Deg. of freedom   144
 Full point group                 C1      NOp   1
 Rotational constants (GHZ):      0.3090427      0.0554979      0.0520685
 Leave Link  202 at Mon Feb  3 21:50:38 2025, MaxMem=  5368709120 cpu:         0.1
 (Enter /home/k0335/k033513/app/g09/l301.exe)
 Standard basis: 6-31G(d,p) (6D, 7F)
 Ernie: Thresh=  0.10000D-02 Tol=  0.10000D-05 Strict=F.
   560 basis functions,  1001 primitive gaussians,   560 cartesian basis functions
   122 alpha electrons      122 beta electrons
       nuclear repulsion energy      3744.4468134891 Hartrees.
 IExCor=20419 DFT=T Ex+Corr=CAM-B3LYP ExCW=0 ScaHFX=  1.000000
 ScaDFX=  1.000000  1.000000  1.000000  0.810000 ScalE2=  1.000000  1.000000
 IRadAn=      0 IRanWt=     -1 IRanGd=            0 ICorTp=0 IEmpDi=  4
  HFx wShort=  0.000000 wLong=  0.330000 cFull=  0.190000 cShort=  0.000000 cLong=  0.460000
  DFx wShort=  0.000000 wLong=  0.330000 cFull=  0.190000 cShort=  0.000000 cLong=  0.460000
 NAtoms=   50 NActive=   50 NUniq=   50 SFac= 1.00D+00 NAtFMM=   60 NAOKFM=F Big=F
 Integral buffers will be    131072 words long.
 Raffenetti 2 integral format.
 Two-electron integral symmetry is turned off.
 Using the following non-standard input for PCM:
 eps=2.05
 --- end of non-standard input.
 ------------------------------------------------------------------------------
 Polarizable Continuum Model (PCM)
 =================================
 Model                : PCM (using non-symmetric T matrix).
 Atomic radii         : UFF (Universal Force Field).
 Polarization charges : Total charges.
 Charge compensation  : None.
 Solution method      : On-the-fly selection.
 Cavity type          : Scaled VdW (van der Waals Surface) (Alpha=1.100).
 Cavity algorithm     : GePol (No added spheres)
                        Default sphere list used, NSphG=   50.
                        Lebedev-Laikov grids with approx.  5.0 points / Ang**2.
                        Smoothing algorithm: Karplus/York (Gamma=1.0000).
                        Polarization charges: spherical gaussians, with
                                              point-specific exponents (IZeta= 3).
                        Self-potential: point-specific (ISelfS= 7).
                        Self-field    : sphere-specific E.n sum rule (ISelfD= 2).
 Solvent              : Generic,
                        Eps                           =   2.050000
                        Eps(infinity)                 =   0.000000
                        RSolv                         =   0.000000 Ang.
                        Molar volume                  =   0.000000 cm**3/mol
                        Thermal expansion coefficient =   0.000000 K**-1
                        Absolute temperature          = 298.150000 K
                        Numeral density               =   0.000000 Ang**-3
                        Hydrogen bond acidity         =   0.000000
                        Hydrogen bond basicity        =   0.000000
                        Surface tension at interface  =   0.000000 (cal/mol)*Ang**-2
                        Carbon aromaticity            =   0.000000
                        Electronegative halogenicity  =   0.000000
 ------------------------------------------------------------------------------
 GePol: Number of generator spheres                  =      50
 GePol: Total number of spheres                      =      50
 GePol: Number of exposed spheres                    =      49 ( 98.00%)
 GePol: Number of points                             =    3672
 GePol: Average weight of points                     =       0.13
 GePol: Minimum weight of points                     =   0.35D-11
 GePol: Maximum weight of points                     =    0.20577
 GePol: Number of points with low weight             =     218
 GePol: Fraction of low-weight points (<1% of avg)   =       5.94%
 GePol: Cavity surface area                          =    468.476 Ang**2
 GePol: Cavity volume                                =    521.132 Ang**3
 Leave Link  301 at Mon Feb  3 21:50:38 2025, MaxMem=  5368709120 cpu:         0.7
 (Enter /home/k0335/k033513/app/g09/l302.exe)
 NPDir=0 NMtPBC=     1 NCelOv=     1 NCel=       1 NClECP=     1 NCelD=      1
         NCelK=      1 NCelE2=     1 NClLst=     1 CellRange=     0.0.
 One-electron integrals computed using PRISM.
 NBasis=   560 RedAO= T EigKep=  8.80D-04  NBF=   560
 NBsUse=   560 1.00D-06 EigRej= -1.00D+00 NBFU=   560
 Precomputing XC quadrature grid using
 IXCGrd= 4 IRadAn=           0 IRanWt=          -1 IRanGd=           0 AccXCQ= 0.00D+00.
 Generated NRdTot=       0 NPtTot=           0 NUsed=           0 NTot=          32
 NSgBfM=   523   529   529   529   529 MxSgAt=    50 MxSgA2=    50.
 Leave Link  302 at Mon Feb  3 21:50:39 2025, MaxMem=  5368709120 cpu:        10.8
 (Enter /home/k0335/k033513/app/g09/l303.exe)
 DipDrv:  MaxL=1.
 Leave Link  303 at Mon Feb  3 21:50:39 2025, MaxMem=  5368709120 cpu:         0.8
 (Enter /home/k0335/k033513/app/g09/l401.exe)
 ExpMin= 1.61D-01 ExpMax= 7.00D+03 ExpMxC= 1.05D+03 IAcc=1 IRadAn=         1 AccDes= 0.00D+00
 Harris functional with IExCor=20419 and IRadAn=       1 diagonalized for initial guess.
 HarFok:  IExCor=20419 AccDes= 0.00D+00 IRadAn=         1 IDoV= 1 UseB2=F ITyADJ=14
 ICtDFT=  3500011 ScaDFX=  1.000000  1.000000  1.000000  1.000000
 FoFCou: FMM=F IPFlag=           0 FMFlag=      100000 FMFlg1=           0
         NFxFlg=           0 DoJE=T BraDBF=F KetDBF=T FulRan=T
         wScrn=  0.000000 ICntrl=     500 IOpCl=  0 I1Cent=   200000004 NGrid=           0
         NMat0=    1 NMatS0=      1 NMatT0=    0 NMatD0=    1 NMtDS0=    0 NMtDT0=    0
 Symmetry not used in FoFCou.
 Harris En= -1910.61120166695    
 JPrj=0 DoOrth=F DoCkMO=F.
 Leave Link  401 at Mon Feb  3 21:50:40 2025, MaxMem=  5368709120 cpu:        12.3
 (Enter /home/k0335/k033513/app/g09/l502.exe)
 Closed shell SCF:
 Using DIIS extrapolation, IDIIS=  1040.
 Two-electron integral symmetry not used.
 IVT=      976250 IEndB=      976250 NGot=  5368709120 MDV=  5368063671
 LenX=  5368063671 LenY=  5367749511
 Requested convergence on RMS density matrix=1.00D-08 within 128 cycles.
 Requested convergence on MAX density matrix=1.00D-06.
 Requested convergence on             energy=1.00D-06.
 No special actions if energy rises.
 Fock matrices will be formed incrementally for  20 cycles.

 Cycle   1  Pass 1  IDiag  1:
 FoFJK:  IHMeth= 1 ICntrl=       0 DoSepK=T KAlg= 0 I1Cent=   0 FoldK=F
 IRaf=         1 NMat=   1 IRICut=       1 DoRegI=T DoRafI=F ISym2E= 0.
 FoFCou: FMM=F IPFlag=           0 FMFlag=      100000 FMFlg1=           0
         NFxFlg=           0 DoJE=T BraDBF=F KetDBF=F FulRan=T
         wScrn=  0.000000 ICntrl=     500 IOpCl=  0 I1Cent=           0 NGrid=           0
         NMat0=    1 NMatS0=      1 NMatT0=    0 NMatD0=    1 NMtDS0=    0 NMtDT0=    0
 Symmetry not used in FoFCou.
 Inv3:  Mode=1 IEnd=    40450752.
 Iteration    1 A*A^-1 deviation from unit magnitude is 6.66D-15 for    900.
 Iteration    1 A*A^-1 deviation from orthogonality  is 4.43D-15 for   3649   1566.
 Iteration    1 A^-1*A deviation from unit magnitude is 1.04D-14 for    138.
 Iteration    1 A^-1*A deviation from orthogonality  is 2.12D-15 for   3658   3650.
 E= -1973.92490582430    
 DIIS: error= 5.03D-02 at cycle   1 NSaved=   1.
 NSaved= 1 IEnMin= 1 EnMin= -1973.92490582430     IErMin= 1 ErrMin= 5.03D-02
 ErrMax= 5.03D-02  0.00D+00 EMaxC= 1.00D-01 BMatC= 1.61D+00 BMatP= 1.61D+00
 IDIUse=3 WtCom= 4.97D-01 WtEn= 5.03D-01
 Coeff-Com:  0.100D+01
 Coeff-En:   0.100D+01
 Coeff:      0.100D+01
 Gap=     0.493 Goal=   None    Shift=    0.000
 GapD=    0.493 DampG=2.000 DampE=0.500 DampFc=1.0000 IDamp=-1.
 RMSDP=2.72D-03 MaxDP=1.20D-01              OVMax= 1.23D-01

 Cycle   2  Pass 1  IDiag  1:
 RMSU=  2.71D-03    CP:  9.91D-01
 E= -1974.16707699152     Delta-E=       -0.242171167213 Rises=F Damp=F
 DIIS: error= 1.80D-02 at cycle   2 NSaved=   2.
 NSaved= 2 IEnMin= 2 EnMin= -1974.16707699152     IErMin= 2 ErrMin= 1.80D-02
 ErrMax= 1.80D-02  0.00D+00 EMaxC= 1.00D-01 BMatC= 5.92D-01 BMatP= 1.61D+00
 IDIUse=3 WtCom= 8.20D-01 WtEn= 1.80D-01
 Coeff-Com:  0.354D+00 0.646D+00
 Coeff-En:   0.337D+00 0.663D+00
 Coeff:      0.351D+00 0.649D+00
 Gap=     0.390 Goal=   None    Shift=    0.000
 RMSDP=1.27D-03 MaxDP=7.26D-02 DE=-2.42D-01 OVMax= 8.39D-02

 Cycle   3  Pass 1  IDiag  1:
 RMSU=  7.70D-04    CP:  9.99D-01  6.30D-01
 E= -1974.45774628869     Delta-E=       -0.290669297169 Rises=F Damp=F
 DIIS: error= 7.75D-03 at cycle   3 NSaved=   3.
 NSaved= 3 IEnMin= 3 EnMin= -1974.45774628869     IErMin= 3 ErrMin= 7.75D-03
 ErrMax= 7.75D-03  0.00D+00 EMaxC= 1.00D-01 BMatC= 1.08D-01 BMatP= 5.92D-01
 IDIUse=3 WtCom= 9.23D-01 WtEn= 7.75D-02
 Coeff-Com:  0.696D-01 0.315D+00 0.615D+00
 Coeff-En:   0.000D+00 0.109D+00 0.891D+00
 Coeff:      0.642D-01 0.299D+00 0.637D+00
 Gap=     0.334 Goal=   None    Shift=    0.000
 RMSDP=5.62D-04 MaxDP=3.73D-02 DE=-2.91D-01 OVMax= 6.39D-02

 Cycle   4  Pass 1  IDiag  1:
 RMSU=  3.09D-04    CP:  9.94D-01  7.18D-01  4.83D-01
 E= -1974.51980913274     Delta-E=       -0.062062844052 Rises=F Damp=F
 DIIS: error= 3.68D-03 at cycle   4 NSaved=   4.
 NSaved= 4 IEnMin= 4 EnMin= -1974.51980913274     IErMin= 4 ErrMin= 3.68D-03
 ErrMax= 3.68D-03  0.00D+00 EMaxC= 1.00D-01 BMatC= 1.12D-02 BMatP= 1.08D-01
 IDIUse=3 WtCom= 9.63D-01 WtEn= 3.68D-02
 Coeff-Com:  0.646D-02 0.970D-01 0.329D+00 0.568D+00
 Coeff-En:   0.000D+00 0.000D+00 0.474D-01 0.953D+00
 Coeff:      0.622D-02 0.935D-01 0.318D+00 0.582D+00
 Gap=     0.327 Goal=   None    Shift=    0.000
 RMSDP=1.74D-04 MaxDP=1.41D-02 DE=-6.21D-02 OVMax= 2.25D-02

 Cycle   5  Pass 1  IDiag  1:
 RMSU=  7.52D-05    CP:  9.94D-01  7.19D-01  6.20D-01  6.25D-01
 E= -1974.52765649874     Delta-E=       -0.007847366005 Rises=F Damp=F
 DIIS: error= 7.98D-04 at cycle   5 NSaved=   5.
 NSaved= 5 IEnMin= 5 EnMin= -1974.52765649874     IErMin= 5 ErrMin= 7.98D-04
 ErrMax= 7.98D-04  0.00D+00 EMaxC= 1.00D-01 BMatC= 5.78D-04 BMatP= 1.12D-02
 IDIUse=3 WtCom= 9.92D-01 WtEn= 7.98D-03
 Coeff-Com:  0.599D-03 0.386D-01 0.151D+00 0.320D+00 0.490D+00
 Coeff-En:   0.000D+00 0.000D+00 0.000D+00 0.000D+00 0.100D+01
 Coeff:      0.594D-03 0.383D-01 0.150D+00 0.317D+00 0.494D+00
 Gap=     0.322 Goal=   None    Shift=    0.000
 RMSDP=3.69D-05 MaxDP=3.12D-03 DE=-7.85D-03 OVMax= 6.16D-03

 Cycle   6  Pass 1  IDiag  1:
 RMSU=  2.19D-05    CP:  9.95D-01  7.20D-01  6.18D-01  6.45D-01  6.19D-01
 E= -1974.52807366455     Delta-E=       -0.000417165801 Rises=F Damp=F
 DIIS: error= 1.72D-04 at cycle   6 NSaved=   6.
 NSaved= 6 IEnMin= 6 EnMin= -1974.52807366455     IErMin= 6 ErrMin= 1.72D-04
 ErrMax= 1.72D-04  0.00D+00 EMaxC= 1.00D-01 BMatC= 2.80D-05 BMatP= 5.78D-04
 IDIUse=3 WtCom= 9.98D-01 WtEn= 1.72D-03
 Coeff-Com: -0.544D-03 0.435D-02 0.234D-01 0.599D-01 0.208D+00 0.705D+00
 Coeff-En:   0.000D+00 0.000D+00 0.000D+00 0.000D+00 0.000D+00 0.100D+01
 Coeff:     -0.543D-03 0.434D-02 0.233D-01 0.598D-01 0.208D+00 0.706D+00
 Gap=     0.322 Goal=   None    Shift=    0.000
 RMSDP=1.15D-05 MaxDP=6.56D-04 DE=-4.17D-04 OVMax= 1.04D-03

 Cycle   7  Pass 1  IDiag  1:
 RMSU=  7.91D-06    CP:  9.95D-01  7.20D-01  6.22D-01  6.59D-01  6.99D-01
                    CP:  8.75D-01
 E= -1974.52809436183     Delta-E=       -0.000020697287 Rises=F Damp=F
 DIIS: error= 3.79D-05 at cycle   7 NSaved=   7.
 NSaved= 7 IEnMin= 7 EnMin= -1974.52809436183     IErMin= 7 ErrMin= 3.79D-05
 ErrMax= 3.79D-05  0.00D+00 EMaxC= 1.00D-01 BMatC= 3.72D-06 BMatP= 2.80D-05
 IDIUse=1 WtCom= 1.00D+00 WtEn= 0.00D+00
 Coeff-Com: -0.230D-03-0.366D-02-0.112D-01-0.193D-01 0.307D-01 0.315D+00
 Coeff-Com:  0.688D+00
 Coeff:     -0.230D-03-0.366D-02-0.112D-01-0.193D-01 0.307D-01 0.315D+00
 Coeff:      0.688D+00
 Gap=     0.322 Goal=   None    Shift=    0.000
 RMSDP=3.65D-06 MaxDP=1.90D-04 DE=-2.07D-05 OVMax= 4.48D-04

 Cycle   8  Pass 1  IDiag  1:
 RMSU=  2.31D-06    CP:  9.95D-01  7.20D-01  6.22D-01  6.59D-01  7.18D-01
                    CP:  9.71D-01  8.56D-01
 E= -1974.52809762640     Delta-E=       -0.000003264567 Rises=F Damp=F
 DIIS: error= 1.28D-05 at cycle   8 NSaved=   8.
 NSaved= 8 IEnMin= 8 EnMin= -1974.52809762640     IErMin= 8 ErrMin= 1.28D-05
 ErrMax= 1.28D-05  0.00D+00 EMaxC= 1.00D-01 BMatC= 2.55D-07 BMatP= 3.72D-06
 IDIUse=1 WtCom= 1.00D+00 WtEn= 0.00D+00
 Coeff-Com: -0.503D-04-0.175D-02-0.591D-02-0.121D-01 0.549D-03 0.727D-01
 Coeff-Com:  0.272D+00 0.674D+00
 Coeff:     -0.503D-04-0.175D-02-0.591D-02-0.121D-01 0.549D-03 0.727D-01
 Coeff:      0.272D+00 0.674D+00
 Gap=     0.322 Goal=   None    Shift=    0.000
 RMSDP=1.11D-06 MaxDP=5.52D-05 DE=-3.26D-06 OVMax= 1.25D-04

 Cycle   9  Pass 1  IDiag  1:
 RMSU=  7.97D-07    CP:  9.95D-01  7.20D-01  6.22D-01  6.59D-01  7.24D-01
                    CP:  9.86D-01  9.14D-01  1.02D+00
 E= -1974.52809785151     Delta-E=       -0.000000225109 Rises=F Damp=F
 DIIS: error= 4.28D-06 at cycle   9 NSaved=   9.
 NSaved= 9 IEnMin= 9 EnMin= -1974.52809785151     IErMin= 9 ErrMin= 4.28D-06
 ErrMax= 4.28D-06  0.00D+00 EMaxC= 1.00D-01 BMatC= 3.42D-08 BMatP= 2.55D-07
 IDIUse=1 WtCom= 1.00D+00 WtEn= 0.00D+00
 Coeff-Com:  0.121D-04-0.112D-03-0.512D-03-0.187D-02-0.393D-02-0.279D-01
 Coeff-Com: -0.664D-02 0.239D+00 0.802D+00
 Coeff:      0.121D-04-0.112D-03-0.512D-03-0.187D-02-0.393D-02-0.279D-01
 Coeff:     -0.664D-02 0.239D+00 0.802D+00
 Gap=     0.322 Goal=   None    Shift=    0.000
 RMSDP=5.77D-07 MaxDP=4.79D-05 DE=-2.25D-07 OVMax= 7.09D-05

 Cycle  10  Pass 1  IDiag  1:
 RMSU=  3.06D-07    CP:  9.95D-01  7.20D-01  6.22D-01  6.59D-01  7.27D-01
                    CP:  9.93D-01  9.42D-01  1.14D+00  9.91D-01
 E= -1974.52809789276     Delta-E=       -0.000000041251 Rises=F Damp=F
 DIIS: error= 1.96D-06 at cycle  10 NSaved=  10.
 NSaved=10 IEnMin=10 EnMin= -1974.52809789276     IErMin=10 ErrMin= 1.96D-06
 ErrMax= 1.96D-06  0.00D+00 EMaxC= 1.00D-01 BMatC= 3.27D-09 BMatP= 3.42D-08
 IDIUse=1 WtCom= 1.00D+00 WtEn= 0.00D+00
 Coeff-Com:  0.104D-04 0.168D-03 0.525D-03 0.748D-03-0.739D-03-0.179D-01
 Coeff-Com: -0.317D-01-0.676D-02 0.255D+00 0.801D+00
 Coeff:      0.104D-04 0.168D-03 0.525D-03 0.748D-03-0.739D-03-0.179D-01
 Coeff:     -0.317D-01-0.676D-02 0.255D+00 0.801D+00
 Gap=     0.322 Goal=   None    Shift=    0.000
 RMSDP=1.94D-07 MaxDP=1.06D-05 DE=-4.13D-08 OVMax= 2.98D-05

 Cycle  11  Pass 1  IDiag  1:
 RMSU=  1.00D-07    CP:  9.95D-01  7.20D-01  6.22D-01  6.59D-01  7.28D-01
                    CP:  9.94D-01  9.53D-01  1.18D+00  1.11D+00  9.82D-01
 E= -1974.52809789640     Delta-E=       -0.000000003643 Rises=F Damp=F
 DIIS: error= 1.22D-06 at cycle  11 NSaved=  11.
 NSaved=11 IEnMin=11 EnMin= -1974.52809789640     IErMin=11 ErrMin= 1.22D-06
 ErrMax= 1.22D-06  0.00D+00 EMaxC= 1.00D-01 BMatC= 8.51D-10 BMatP= 3.27D-09
 IDIUse=1 WtCom= 1.00D+00 WtEn= 0.00D+00
 Coeff-Com:  0.466D-05 0.105D-03 0.342D-03 0.591D-03 0.120D-03-0.711D-02
 Coeff-Com: -0.161D-01-0.273D-01 0.586D-01 0.428D+00 0.562D+00
 Coeff:      0.466D-05 0.105D-03 0.342D-03 0.591D-03 0.120D-03-0.711D-02
 Coeff:     -0.161D-01-0.273D-01 0.586D-01 0.428D+00 0.562D+00
 Gap=     0.322 Goal=   None    Shift=    0.000
 RMSDP=5.98D-08 MaxDP=5.03D-06 DE=-3.64D-09 OVMax= 1.03D-05

 Cycle  12  Pass 1  IDiag  1:
 RMSU=  3.82D-08    CP:  9.95D-01  7.20D-01  6.22D-01  6.59D-01  7.28D-01
                    CP:  9.94D-01  9.54D-01  1.19D+00  1.13D+00  1.07D+00
                    CP:  8.20D-01
 E= -1974.52809789719     Delta-E=       -0.000000000791 Rises=F Damp=F
 DIIS: error= 3.80D-07 at cycle  12 NSaved=  12.
 NSaved=12 IEnMin=12 EnMin= -1974.52809789719     IErMin=12 ErrMin= 3.80D-07
 ErrMax= 3.80D-07  0.00D+00 EMaxC= 1.00D-01 BMatC= 7.59D-11 BMatP= 8.51D-10
 IDIUse=1 WtCom= 1.00D+00 WtEn= 0.00D+00
 Coeff-Com:  0.698D-07 0.155D-04 0.543D-04 0.118D-03 0.274D-03 0.131D-03
 Coeff-Com: -0.950D-03-0.101D-01-0.195D-01 0.376D-01 0.229D+00 0.763D+00
 Coeff:      0.698D-07 0.155D-04 0.543D-04 0.118D-03 0.274D-03 0.131D-03
 Coeff:     -0.950D-03-0.101D-01-0.195D-01 0.376D-01 0.229D+00 0.763D+00
 Gap=     0.322 Goal=   None    Shift=    0.000
 RMSDP=2.15D-08 MaxDP=2.00D-06 DE=-7.91D-10 OVMax= 3.92D-06

 Cycle  13  Pass 1  IDiag  1:
 RMSU=  1.23D-08    CP:  9.95D-01  7.20D-01  6.22D-01  6.59D-01  7.28D-01
                    CP:  9.94D-01  9.55D-01  1.19D+00  1.13D+00  1.10D+00
                    CP:  9.28D-01  8.97D-01
 E= -1974.52809789734     Delta-E=       -0.000000000143 Rises=F Damp=F
 DIIS: error= 1.05D-07 at cycle  13 NSaved=  13.
 NSaved=13 IEnMin=13 EnMin= -1974.52809789734     IErMin=13 ErrMin= 1.05D-07
 ErrMax= 1.05D-07  0.00D+00 EMaxC= 1.00D-01 BMatC= 1.45D-11 BMatP= 7.59D-11
 IDIUse=1 WtCom= 1.00D+00 WtEn= 0.00D+00
 Coeff-Com: -0.488D-06-0.291D-05-0.720D-05-0.112D-05 0.145D-03 0.809D-03
 Coeff-Com:  0.124D-02-0.238D-02-0.167D-01-0.278D-01 0.552D-01 0.397D+00
 Coeff-Com:  0.593D+00
 Coeff:     -0.488D-06-0.291D-05-0.720D-05-0.112D-05 0.145D-03 0.809D-03
 Coeff:      0.124D-02-0.238D-02-0.167D-01-0.278D-01 0.552D-01 0.397D+00
 Coeff:      0.593D+00
 Gap=     0.322 Goal=   None    Shift=    0.000
 RMSDP=7.59D-09 MaxDP=5.86D-07 DE=-1.43D-10 OVMax= 1.01D-06

 Error on total polarization charges =  0.00430
 SCF Done:  E(RCAM-B3LYP) =  -1974.52809790     A.U. after   13 cycles
            NFock= 13  Conv=0.76D-08     -V/T= 2.0076
 KE= 1.959589559572D+03 PE=-1.214041636995D+04 EE= 4.461851898990D+03
 Leave Link  502 at Mon Feb  3 21:51:26 2025, MaxMem=  5368709120 cpu:      1019.8
 (Enter /home/k0335/k033513/app/g09/l601.exe)
 Copying SCF densities to generalized density rwf, IOpCl= 0 IROHF=0.

 **********************************************************************

            Population analysis using the SCF density.

 **********************************************************************

 Alpha  occ. eigenvalues --  -24.83704 -24.83314 -24.82936 -24.82630 -24.82305
 Alpha  occ. eigenvalues --  -24.82232 -24.82095 -24.81980 -24.81522 -24.81430
 Alpha  occ. eigenvalues --  -19.31335 -19.30170 -19.25474 -19.21554 -14.44862
 Alpha  occ. eigenvalues --  -10.52351 -10.48997 -10.48944 -10.47582 -10.47182
 Alpha  occ. eigenvalues --  -10.44406 -10.42754 -10.39534 -10.29845 -10.26336
 Alpha  occ. eigenvalues --  -10.25611 -10.25077 -10.24760 -10.24684 -10.24600
 Alpha  occ. eigenvalues --  -10.24066  -1.40533  -1.38233  -1.37850  -1.36925
 Alpha  occ. eigenvalues --   -1.35662  -1.33719  -1.32841  -1.31597  -1.31236
 Alpha  occ. eigenvalues --   -1.30156  -1.22127  -1.19393  -1.13632  -1.12312
 Alpha  occ. eigenvalues --   -1.01591  -0.97563  -0.90460  -0.89698  -0.88583
 Alpha  occ. eigenvalues --   -0.87222  -0.83933  -0.82010  -0.78676  -0.77466
 Alpha  occ. eigenvalues --   -0.76111  -0.73954  -0.73164  -0.71021  -0.70315
 Alpha  occ. eigenvalues --   -0.69926  -0.69005  -0.68437  -0.67863  -0.66521
 Alpha  occ. eigenvalues --   -0.66145  -0.65880  -0.65473  -0.64530  -0.63996
 Alpha  occ. eigenvalues --   -0.63776  -0.63309  -0.62689  -0.61854  -0.58478
 Alpha  occ. eigenvalues --   -0.57607  -0.56720  -0.56268  -0.55857  -0.55522
 Alpha  occ. eigenvalues --   -0.55406  -0.54473  -0.54221  -0.53798  -0.53531
 Alpha  occ. eigenvalues --   -0.53442  -0.53073  -0.52647  -0.52560  -0.52288
 Alpha  occ. eigenvalues --   -0.52083  -0.51757  -0.51355  -0.50795  -0.50578
 Alpha  occ. eigenvalues --   -0.50143  -0.49848  -0.49589  -0.49366  -0.48702
 Alpha  occ. eigenvalues --   -0.48554  -0.48193  -0.47300  -0.46236  -0.45714
 Alpha  occ. eigenvalues --   -0.45539  -0.44876  -0.44554  -0.42942  -0.42648
 Alpha  occ. eigenvalues --   -0.42248  -0.41584  -0.41125  -0.40747  -0.39638
 Alpha  occ. eigenvalues --   -0.38901  -0.38242  -0.37737  -0.37663  -0.35841
 Alpha  occ. eigenvalues --   -0.34366  -0.32348
 Alpha virt. eigenvalues --   -0.00161   0.02222   0.04387   0.09135   0.10481
 Alpha virt. eigenvalues --    0.12185   0.12760   0.13518   0.13727   0.14546
 Alpha virt. eigenvalues --    0.14919   0.16064   0.16696   0.17613   0.18052
 Alpha virt. eigenvalues --    0.18928   0.19552   0.20335   0.21373   0.21879
 Alpha virt. eigenvalues --    0.22212   0.22387   0.23429   0.23622   0.23920
 Alpha virt. eigenvalues --    0.24042   0.24421   0.24696   0.25539   0.25987
 Alpha virt. eigenvalues --    0.26034   0.27151   0.27980   0.28328   0.28463
 Alpha virt. eigenvalues --    0.29230   0.29762   0.30136   0.30967   0.31338
 Alpha virt. eigenvalues --    0.31674   0.32006   0.32605   0.33384   0.34375
 Alpha virt. eigenvalues --    0.35074   0.36755   0.37096   0.38594   0.40544
 Alpha virt. eigenvalues --    0.41475   0.45303   0.47829   0.49530   0.51422
 Alpha virt. eigenvalues --    0.51851   0.54244   0.54651   0.55903   0.56118
 Alpha virt. eigenvalues --    0.56497   0.57250   0.58053   0.58503   0.59199
 Alpha virt. eigenvalues --    0.59629   0.60028   0.60451   0.62058   0.62192
 Alpha virt. eigenvalues --    0.63054   0.64051   0.64359   0.64996   0.65363
 Alpha virt. eigenvalues --    0.66455   0.67649   0.68290   0.69415   0.70065
 Alpha virt. eigenvalues --    0.70417   0.71284   0.71883   0.73478   0.73658
 Alpha virt. eigenvalues --    0.73908   0.74628   0.75486   0.76806   0.77216
 Alpha virt. eigenvalues --    0.77408   0.78536   0.79918   0.80936   0.82041
 Alpha virt. eigenvalues --    0.83590   0.85436   0.86710   0.87936   0.88102
 Alpha virt. eigenvalues --    0.88442   0.88800   0.90142   0.90762   0.91180
 Alpha virt. eigenvalues --    0.91617   0.92409   0.93311   0.93890   0.94294
 Alpha virt. eigenvalues --    0.94693   0.95672   0.96440   0.97023   0.98022
 Alpha virt. eigenvalues --    0.98094   0.98905   0.99411   0.99712   0.99942
 Alpha virt. eigenvalues --    1.00874   1.01179   1.02193   1.02415   1.03519
 Alpha virt. eigenvalues --    1.04012   1.04682   1.05121   1.05543   1.07487
 Alpha virt. eigenvalues --    1.07564   1.08165   1.08667   1.09650   1.11210
 Alpha virt. eigenvalues --    1.11708   1.12503   1.13864   1.14833   1.15831
 Alpha virt. eigenvalues --    1.16650   1.17960   1.19938   1.19956   1.20699
 Alpha virt. eigenvalues --    1.22262   1.23353   1.25107   1.26202   1.27102
 Alpha virt. eigenvalues --    1.28626   1.28780   1.30420   1.32481   1.32838
 Alpha virt. eigenvalues --    1.33244   1.33795   1.35245   1.35624   1.36404
 Alpha virt. eigenvalues --    1.36707   1.37409   1.37909   1.38776   1.38827
 Alpha virt. eigenvalues --    1.39585   1.40244   1.41506   1.41911   1.42674
 Alpha virt. eigenvalues --    1.43239   1.44203   1.45326   1.45833   1.46537
 Alpha virt. eigenvalues --    1.47500   1.47752   1.48876   1.49536   1.49804
 Alpha virt. eigenvalues --    1.51394   1.52416   1.53549   1.53956   1.54698
 Alpha virt. eigenvalues --    1.55691   1.56455   1.56576   1.57741   1.60345
 Alpha virt. eigenvalues --    1.60633   1.61907   1.62454   1.63174   1.64575
 Alpha virt. eigenvalues --    1.66047   1.66247   1.66900   1.68018   1.68095
 Alpha virt. eigenvalues --    1.70150   1.70592   1.71464   1.72783   1.73214
 Alpha virt. eigenvalues --    1.73445   1.75111   1.76327   1.76538   1.77285
 Alpha virt. eigenvalues --    1.77631   1.78271   1.78566   1.79578   1.79947
 Alpha virt. eigenvalues --    1.80005   1.80919   1.81938   1.82558   1.83085
 Alpha virt. eigenvalues --    1.84026   1.85243   1.86121   1.86390   1.87242
 Alpha virt. eigenvalues --    1.87731   1.87816   1.88470   1.89012   1.89677
 Alpha virt. eigenvalues --    1.91110   1.91585   1.92299   1.92687   1.93104
 Alpha virt. eigenvalues --    1.93960   1.94505   1.95512   1.95777   1.96041
 Alpha virt. eigenvalues --    1.96743   1.98085   1.98544   1.98587   1.98962
 Alpha virt. eigenvalues --    2.00286   2.01064   2.02317   2.02626   2.03643
 Alpha virt. eigenvalues --    2.03873   2.04241   2.04959   2.06473   2.06947
 Alpha virt. eigenvalues --    2.07462   2.07871   2.08252   2.08523   2.09778
 Alpha virt. eigenvalues --    2.10491   2.10884   2.12254   2.13184   2.13293
 Alpha virt. eigenvalues --    2.14388   2.15413   2.15625   2.15631   2.16512
 Alpha virt. eigenvalues --    2.16819   2.18178   2.18724   2.19083   2.20108
 Alpha virt. eigenvalues --    2.20280   2.20598   2.21286   2.21965   2.24140
 Alpha virt. eigenvalues --    2.24328   2.24816   2.25362   2.25435   2.27267
 Alpha virt. eigenvalues --    2.28843   2.30359   2.30822   2.31636   2.31871
 Alpha virt. eigenvalues --    2.32792   2.33196   2.33689   2.34468   2.35334
 Alpha virt. eigenvalues --    2.35647   2.36370   2.37082   2.37846   2.38355
 Alpha virt. eigenvalues --    2.38998   2.40612   2.41178   2.42177   2.42507
 Alpha virt. eigenvalues --    2.43526   2.44599   2.44823   2.45312   2.46229
 Alpha virt. eigenvalues --    2.47531   2.47657   2.48001   2.49928   2.50711
 Alpha virt. eigenvalues --    2.51690   2.53082   2.54268   2.54458   2.57382
 Alpha virt. eigenvalues --    2.58191   2.58418   2.58776   2.60400   2.61574
 Alpha virt. eigenvalues --    2.62512   2.64613   2.64789   2.67851   2.68888
 Alpha virt. eigenvalues --    2.69141   2.69518   2.69778   2.70890   2.72624
 Alpha virt. eigenvalues --    2.74581   2.76255   2.76914   2.77630   2.77922
 Alpha virt. eigenvalues --    2.78333   2.78950   2.79335   2.80591   2.80927
 Alpha virt. eigenvalues --    2.83173   2.83368   2.83656   2.84873   2.86256
 Alpha virt. eigenvalues --    2.86627   2.88683   2.89611   2.90182   2.91920
 Alpha virt. eigenvalues --    2.92504   2.93602   2.94544   2.94850   2.96026
 Alpha virt. eigenvalues --    2.96468   2.96794   2.97588   2.98634   2.99081
 Alpha virt. eigenvalues --    2.99644   3.00424   3.00556   3.01853   3.02369
 Alpha virt. eigenvalues --    3.02759   3.03289   3.04854   3.05257   3.08031
 Alpha virt. eigenvalues --    3.10991   3.11793   3.14286   3.15795   3.19157
 Alpha virt. eigenvalues --    3.19955   3.21270   3.23204   3.24614   3.27637
 Alpha virt. eigenvalues --    3.28774   3.30176   3.30828   3.33045   3.34167
 Alpha virt. eigenvalues --    3.35767   3.36940   3.38405   3.38705   3.40496
 Alpha virt. eigenvalues --    3.43482   3.46388   3.47890   3.48371   3.52059
 Alpha virt. eigenvalues --    3.53945   3.55875   3.58554   3.61615   3.63830
 Alpha virt. eigenvalues --    3.66210   3.66815   4.00681   4.14508   4.22978
 Alpha virt. eigenvalues --    4.24324   4.29505   4.32558   4.36902   4.41248
 Alpha virt. eigenvalues --    4.42084   4.46071   4.48238   4.52608   4.56944
 Alpha virt. eigenvalues --    4.64146   4.66687   4.69387   4.71537   4.75462
 Alpha virt. eigenvalues --    4.84221   4.86873   4.92731   4.97637   5.10072
 Alpha virt. eigenvalues --    5.17380   5.29787   5.48609   5.68150   5.85820
 Alpha virt. eigenvalues --    6.27064   6.50674   6.91817
          Condensed to atoms (all electrons):
               1          2          3          4          5          6
     1  F    9.041393   0.312742  -0.042014  -0.024336  -0.000450  -0.000135
     2  C    0.312742   4.361655   0.275836   0.218411  -0.017327  -0.021794
     3  F   -0.042014   0.275836   9.096567  -0.030700   0.000308   0.000110
     4  C   -0.024336   0.218411  -0.030700   4.846789   0.243443   0.266603
     5  F   -0.000450  -0.017327   0.000308   0.243443   9.096178  -0.039825
     6  F   -0.000135  -0.021794   0.000110   0.266603  -0.039825   9.075124
     7  C    0.001365  -0.071593   0.001295   0.074792  -0.044844  -0.028225
     8  F    0.000002   0.010336  -0.000032  -0.021848   0.000393  -0.000424
     9  C   -0.000032   0.004252  -0.000005  -0.033934   0.004015  -0.007541
    10  F    0.000000  -0.000043   0.000000   0.006029  -0.001484  -0.000036
    11  C    0.000000  -0.000282  -0.000008  -0.015298  -0.001708   0.014418
    12  O    0.000000   0.000081   0.000000   0.010113   0.000008  -0.003597
    13  O    0.000000  -0.000003   0.000000  -0.000838  -0.000002  -0.000461
    14  F    0.000000  -0.000092   0.000000   0.002286   0.000000  -0.000001
    15  C    0.001382  -0.027129   0.001490  -0.046774   0.009578   0.002069
    16  F   -0.000003   0.000897  -0.000015   0.001230   0.000000  -0.000001
    17  C    0.000176   0.002616   0.000031  -0.000913   0.002402   0.000007
    18  F   -0.000001   0.000227   0.000000  -0.000075  -0.000003   0.000000
    19  C    0.000000  -0.000020   0.000001   0.000609  -0.000077   0.000000
    20  N    0.000000  -0.000001   0.000000  -0.000009   0.000000   0.000000
    21  C    0.000000   0.000000   0.000000   0.000000   0.000000   0.000000
    22  C    0.000000   0.000000   0.000000   0.000000   0.000000   0.000000
    23  C    0.000000   0.000000   0.000000   0.000000   0.000000   0.000000
    24  C    0.000000   0.000000   0.000000   0.000000   0.000000   0.000000
    25  C    0.000000   0.000000   0.000000   0.000000   0.000000   0.000000
    26  C    0.000000   0.000000   0.000000   0.000000   0.000000   0.000000
    27  C    0.000000   0.000000   0.000000   0.000000   0.000000   0.000000
    28  C    0.000000   0.000000   0.000000   0.000000   0.000000   0.000000
    29  O    0.000000  -0.000002   0.000000   0.000026   0.000001   0.000000
    30  F   -0.000022   0.001268   0.000000   0.001777  -0.003322   0.000000
    31  O   -0.042505   0.192222  -0.052681  -0.043555  -0.001391   0.000724
    32  H    0.000000  -0.000003   0.000000  -0.000244   0.000015   0.000219
    33  H    0.000000   0.000000   0.000000  -0.000001   0.000000   0.000000
    34  H    0.000000   0.000000   0.000000   0.000000   0.000000   0.000000
    35  H    0.000000   0.000000   0.000000   0.000000   0.000000   0.000000
    36  H    0.000000   0.000000   0.000000   0.000000   0.000000   0.000000
    37  H    0.000000   0.000000   0.000000   0.000000   0.000000   0.000000
    38  H    0.000000   0.000000   0.000000   0.000000   0.000000   0.000000
    39  H    0.000000   0.000000   0.000000   0.000000   0.000000   0.000000
    40  H    0.000000   0.000000   0.000000   0.000000   0.000000   0.000000
    41  H    0.000000   0.000000   0.000000   0.000000   0.000000   0.000000
    42  H    0.000000   0.000000   0.000000   0.000000   0.000000   0.000000
    43  H    0.000000   0.000000   0.000000   0.000000   0.000000   0.000000
    44  H    0.000000   0.000000   0.000000   0.000000   0.000000   0.000000
    45  H    0.000000   0.000000   0.000000   0.000000   0.000000   0.000000
    46  H    0.000000   0.000000   0.000000   0.000000   0.000000   0.000000
    47  H    0.000000   0.000000   0.000000   0.000000   0.000000   0.000000
    48  H    0.000000   0.000000   0.000000   0.000000   0.000000   0.000000
    49  H    0.000000   0.000000   0.000000   0.000000   0.000000   0.000000
    50  H    0.000000   0.000000   0.000000   0.000000   0.000000   0.000000
               7          8          9         10         11         12
     1  F    0.001365   0.000002  -0.000032   0.000000   0.000000   0.000000
     2  C   -0.071593   0.010336   0.004252  -0.000043  -0.000282   0.000081
     3  F    0.001295  -0.000032  -0.000005   0.000000  -0.000008   0.000000
     4  C    0.074792  -0.021848  -0.033934   0.006029  -0.015298   0.010113
     5  F   -0.044844   0.000393   0.004015  -0.001484  -0.001708   0.000008
     6  F   -0.028225  -0.000424  -0.007541  -0.000036   0.014418  -0.003597
     7  C    5.572736   0.186112   0.226221  -0.035731  -0.063355  -0.002196
     8  F    0.186112   9.145634  -0.028865   0.000335   0.008880   0.000052
     9  C    0.226221  -0.028865   4.608053   0.249390   0.231113  -0.073140
    10  F   -0.035731   0.000335   0.249390   9.101405  -0.029508   0.002825
    11  C   -0.063355   0.008880   0.231113  -0.029508   4.568670   0.240597
    12  O   -0.002196   0.000052  -0.073140   0.002825   0.240597   8.108071
    13  O    0.002837  -0.001521  -0.050267   0.000635   0.558345  -0.095456
    14  F   -0.033860  -0.000597   0.259309  -0.037858  -0.026902   0.000663
    15  C    0.147979  -0.006388  -0.017865  -0.007898   0.004368  -0.000089
    16  F   -0.021680  -0.002346  -0.003061   0.000018  -0.000055   0.000000
    17  C   -0.053535   0.001663  -0.000794   0.012268   0.000005   0.000002
    18  F    0.002283  -0.000001  -0.000036   0.000003   0.000000   0.000000
    19  C   -0.004896  -0.000011   0.003188  -0.000555   0.000056  -0.000002
    20  N    0.000594   0.000000  -0.000522   0.000032  -0.000005   0.000000
    21  C    0.000005   0.000000   0.000001   0.000002   0.000000   0.000000
    22  C    0.000000   0.000000   0.000000   0.000000   0.000000   0.000000
    23  C    0.000000   0.000000   0.000000   0.000000   0.000000   0.000000
    24  C    0.000000   0.000000   0.000000   0.000000   0.000000   0.000000
    25  C    0.000000   0.000000   0.000000   0.000000   0.000000   0.000000
    26  C    0.000000   0.000000   0.000000   0.000000   0.000000   0.000000
    27  C    0.000000   0.000000   0.000000   0.000000   0.000000   0.000000
    28  C    0.000000   0.000000   0.000000   0.000000   0.000000   0.000000
    29  O   -0.000275   0.000000   0.006892  -0.003854   0.000036   0.000000
    30  F    0.004975   0.000000  -0.001572  -0.001321   0.000008   0.000000
    31  O   -0.016057  -0.003296   0.002404   0.000018  -0.000069   0.000000
    32  H   -0.000197   0.000003   0.007656  -0.000092  -0.011495   0.281271
    33  H    0.000097   0.000000   0.000014   0.000000   0.000000   0.000000
    34  H    0.000000   0.000000  -0.000001   0.000000   0.000000   0.000000
    35  H    0.000000   0.000000   0.000018  -0.000001   0.000000   0.000000
    36  H    0.000000   0.000000   0.000000   0.000000   0.000000   0.000000
    37  H    0.000000   0.000000   0.000000   0.000000   0.000000   0.000000
    38  H    0.000000   0.000000   0.000000   0.000000   0.000000   0.000000
    39  H    0.000000   0.000000   0.000000   0.000000   0.000000   0.000000
    40  H    0.000000   0.000000   0.000000   0.000000   0.000000   0.000000
    41  H    0.000000   0.000000   0.000000   0.000000   0.000000   0.000000
    42  H    0.000000   0.000000   0.000000   0.000000   0.000000   0.000000
    43  H    0.000000   0.000000   0.000000   0.000000   0.000000   0.000000
    44  H    0.000000   0.000000   0.000000   0.000000   0.000000   0.000000
    45  H    0.000000   0.000000   0.000000   0.000000   0.000000   0.000000
    46  H    0.000000   0.000000   0.000000   0.000000   0.000000   0.000000
    47  H    0.000000   0.000000   0.000000   0.000000   0.000000   0.000000
    48  H    0.000000   0.000000   0.000000   0.000000   0.000000   0.000000
    49  H    0.000000   0.000000   0.000000   0.000000   0.000000   0.000000
    50  H    0.000000   0.000000   0.000000   0.000000   0.000000   0.000000
              13         14         15         16         17         18
     1  F    0.000000   0.000000   0.001382  -0.000003   0.000176  -0.000001
     2  C   -0.000003  -0.000092  -0.027129   0.000897   0.002616   0.000227
     3  F    0.000000   0.000000   0.001490  -0.000015   0.000031   0.000000
     4  C   -0.000838   0.002286  -0.046774   0.001230  -0.000913  -0.000075
     5  F   -0.000002   0.000000   0.009578   0.000000   0.002402  -0.000003
     6  F   -0.000461  -0.000001   0.002069  -0.000001   0.000007   0.000000
     7  C    0.002837  -0.033860   0.147979  -0.021680  -0.053535   0.002283
     8  F   -0.001521  -0.000597  -0.006388  -0.002346   0.001663  -0.000001
     9  C   -0.050267   0.259309  -0.017865  -0.003061  -0.000794  -0.000036
    10  F    0.000635  -0.037858  -0.007898   0.000018   0.012268   0.000003
    11  C    0.558345  -0.026902   0.004368  -0.000055   0.000005   0.000000
    12  O   -0.095456   0.000663  -0.000089   0.000000   0.000002   0.000000
    13  O    8.019060  -0.001753  -0.000071   0.000000   0.000000   0.000000
    14  F   -0.001753   9.101685   0.004977   0.000037  -0.005246   0.000000
    15  C   -0.000071   0.004977   4.940088   0.260329   0.187210  -0.016351
    16  F    0.000000   0.000037   0.260329   9.115267  -0.037886  -0.000343
    17  C    0.000000  -0.005246   0.187210  -0.037886   4.784846   0.229676
    18  F    0.000000   0.000000  -0.016351  -0.000343   0.229676   9.133527
    19  C    0.000000   0.012455  -0.075806   0.003470   0.236863  -0.034462
    20  N    0.000000  -0.000643   0.004728  -0.000108  -0.084386  -0.002485
    21  C    0.000000   0.000026  -0.000095   0.000221   0.003544   0.000054
    22  C    0.000000  -0.000003  -0.000008  -0.000024  -0.000058  -0.000010
    23  C    0.000000   0.000000   0.000000   0.000000   0.000001   0.000000
    24  C    0.000000   0.000000   0.000000   0.000000   0.000000   0.000000
    25  C    0.000000   0.000000   0.000000   0.000000   0.000000   0.000000
    26  C    0.000000   0.000000   0.000000   0.000000   0.000000   0.000000
    27  C    0.000000   0.000000   0.000000   0.000000   0.000000   0.000000
    28  C    0.000000   0.000000   0.000000   0.000000   0.000000   0.000000
    29  O    0.000000  -0.004133   0.000977  -0.000021  -0.054074   0.000822
    30  F    0.000000   0.000013  -0.030330   0.000331   0.257616  -0.039806
    31  O    0.000000   0.000017   0.162680  -0.045237  -0.033186  -0.001266
    32  H    0.008683  -0.000043   0.000007   0.000000   0.000000   0.000000
    33  H    0.000000  -0.000006  -0.000135   0.002013   0.000347   0.012455
    34  H    0.000000   0.000001   0.000005  -0.000004  -0.000210   0.000019
    35  H    0.000000   0.000071  -0.000044   0.000009   0.000387  -0.000008
    36  H    0.000000   0.000000   0.000000   0.000000  -0.000005  -0.000004
    37  H    0.000000   0.000001   0.000012   0.000024  -0.000017   0.000000
    38  H    0.000000   0.000000   0.000000   0.000000   0.000000   0.000000
    39  H    0.000000   0.000000   0.000000   0.000000   0.000000   0.000000
    40  H    0.000000   0.000000   0.000000   0.000000   0.000000   0.000000
    41  H    0.000000   0.000000   0.000000   0.000000   0.000000   0.000000
    42  H    0.000000   0.000000   0.000000   0.000000   0.000000   0.000000
    43  H    0.000000   0.000000   0.000000   0.000000   0.000000   0.000000
    44  H    0.000000   0.000000   0.000000   0.000000   0.000000   0.000000
    45  H    0.000000   0.000000   0.000000   0.000000   0.000000   0.000000
    46  H    0.000000   0.000000   0.000000   0.000000   0.000000   0.000000
    47  H    0.000000   0.000000   0.000000   0.000000   0.000000   0.000000
    48  H    0.000000   0.000000   0.000000   0.000000   0.000000   0.000000
    49  H    0.000000   0.000000   0.000000   0.000000   0.000000   0.000000
    50  H    0.000000   0.000000   0.000000   0.000000   0.000000   0.000000
              19         20         21         22         23         24
     1  F    0.000000   0.000000   0.000000   0.000000   0.000000   0.000000
     2  C   -0.000020  -0.000001   0.000000   0.000000   0.000000   0.000000
     3  F    0.000001   0.000000   0.000000   0.000000   0.000000   0.000000
     4  C    0.000609  -0.000009   0.000000   0.000000   0.000000   0.000000
     5  F   -0.000077   0.000000   0.000000   0.000000   0.000000   0.000000
     6  F    0.000000   0.000000   0.000000   0.000000   0.000000   0.000000
     7  C   -0.004896   0.000594   0.000005   0.000000   0.000000   0.000000
     8  F   -0.000011   0.000000   0.000000   0.000000   0.000000   0.000000
     9  C    0.003188  -0.000522   0.000001   0.000000   0.000000   0.000000
    10  F   -0.000555   0.000032   0.000002   0.000000   0.000000   0.000000
    11  C    0.000056  -0.000005   0.000000   0.000000   0.000000   0.000000
    12  O   -0.000002   0.000000   0.000000   0.000000   0.000000   0.000000
    13  O    0.000000   0.000000   0.000000   0.000000   0.000000   0.000000
    14  F    0.012455  -0.000643   0.000026  -0.000003   0.000000   0.000000
    15  C   -0.075806   0.004728  -0.000095  -0.000008   0.000000   0.000000
    16  F    0.003470  -0.000108   0.000221  -0.000024   0.000000   0.000000
    17  C    0.236863  -0.084386   0.003544  -0.000058   0.000001   0.000000
    18  F   -0.034462  -0.002485   0.000054  -0.000010   0.000000   0.000000
    19  C    4.636016   0.229109  -0.025858   0.004795  -0.000092   0.000001
    20  N    0.229109   7.062145   0.235874  -0.037660   0.002878   0.000107
    21  C   -0.025858   0.235874   4.795126   0.360861  -0.041304  -0.004647
    22  C    0.004795  -0.037660   0.360861   4.955604   0.360844  -0.043002
    23  C   -0.000092   0.002878  -0.041304   0.360844   4.906789   0.370087
    24  C    0.000001   0.000107  -0.004647  -0.043002   0.370087   4.906809
    25  C    0.000000  -0.000001   0.000134   0.003928  -0.039189   0.374180
    26  C    0.000000   0.000000   0.000000  -0.000144   0.003749  -0.038756
    27  C    0.000000   0.000000   0.000000   0.000001  -0.000141   0.003929
    28  C    0.000000   0.000000   0.000000   0.000000   0.000003   0.000152
    29  O    0.537427  -0.102257   0.004554   0.000594   0.000001   0.000000
    30  F   -0.023835   0.001421  -0.000015   0.000000   0.000000   0.000000
    31  O    0.002740  -0.000047   0.000001   0.000000   0.000000   0.000000
    32  H    0.000000   0.000000   0.000000   0.000000   0.000000   0.000000
    33  H   -0.028479   0.337917  -0.029275  -0.002597  -0.000023  -0.000007
    34  H   -0.003192  -0.052798   0.402098  -0.040694  -0.001919   0.002627
    35  H   -0.003171  -0.038910   0.394262  -0.033945  -0.002550  -0.000699
    36  H   -0.000073  -0.003236  -0.038080   0.381610  -0.033289  -0.007303
    37  H    0.000196   0.000401  -0.040144   0.382803  -0.028251   0.004550
    38  H   -0.000008   0.000055  -0.007235  -0.038182   0.388462  -0.038956
    39  H    0.000002  -0.000096   0.004572  -0.032276   0.386895  -0.039318
    40  H    0.000002  -0.000028   0.002342  -0.004618  -0.038614   0.389511
    41  H    0.000000  -0.000019  -0.000946  -0.003148  -0.041357   0.388153
    42  H    0.000000   0.000000   0.000003   0.000010  -0.004289  -0.039104
    43  H    0.000000   0.000000  -0.000023   0.000124  -0.003476  -0.038704
    44  H    0.000000   0.000000   0.000000   0.000002   0.000115  -0.005109
    45  H    0.000000   0.000000  -0.000002   0.000003   0.000041  -0.004315
    46  H    0.000000   0.000000   0.000000   0.000000  -0.000001   0.000045
    47  H    0.000000   0.000000   0.000000   0.000000   0.000002  -0.000145
    48  H    0.000000   0.000000   0.000000   0.000000   0.000000  -0.000030
    49  H    0.000000   0.000000   0.000000   0.000000   0.000000  -0.000002
    50  H    0.000000   0.000000   0.000000   0.000000   0.000006  -0.000080
              25         26         27         28         29         30
     1  F    0.000000   0.000000   0.000000   0.000000   0.000000  -0.000022
     2  C    0.000000   0.000000   0.000000   0.000000  -0.000002   0.001268
     3  F    0.000000   0.000000   0.000000   0.000000   0.000000   0.000000
     4  C    0.000000   0.000000   0.000000   0.000000   0.000026   0.001777
     5  F    0.000000   0.000000   0.000000   0.000000   0.000001  -0.003322
     6  F    0.000000   0.000000   0.000000   0.000000   0.000000   0.000000
     7  C    0.000000   0.000000   0.000000   0.000000  -0.000275   0.004975
     8  F    0.000000   0.000000   0.000000   0.000000   0.000000   0.000000
     9  C    0.000000   0.000000   0.000000   0.000000   0.006892  -0.001572
    10  F    0.000000   0.000000   0.000000   0.000000  -0.003854  -0.001321
    11  C    0.000000   0.000000   0.000000   0.000000   0.000036   0.000008
    12  O    0.000000   0.000000   0.000000   0.000000   0.000000   0.000000
    13  O    0.000000   0.000000   0.000000   0.000000   0.000000   0.000000
    14  F    0.000000   0.000000   0.000000   0.000000  -0.004133   0.000013
    15  C    0.000000   0.000000   0.000000   0.000000   0.000977  -0.030330
    16  F    0.000000   0.000000   0.000000   0.000000  -0.000021   0.000331
    17  C    0.000000   0.000000   0.000000   0.000000  -0.054074   0.257616
    18  F    0.000000   0.000000   0.000000   0.000000   0.000822  -0.039806
    19  C    0.000000   0.000000   0.000000   0.000000   0.537427  -0.023835
    20  N   -0.000001   0.000000   0.000000   0.000000  -0.102257   0.001421
    21  C    0.000134   0.000000   0.000000   0.000000   0.004554  -0.000015
    22  C    0.003928  -0.000144   0.000001   0.000000   0.000594   0.000000
    23  C   -0.039189   0.003749  -0.000141   0.000003   0.000001   0.000000
    24  C    0.374180  -0.038756   0.003929   0.000152   0.000000   0.000000
    25  C    4.898642   0.374740  -0.043062  -0.004985   0.000000   0.000000
    26  C    0.374740   4.901288   0.374343  -0.049134   0.000000   0.000000
    27  C   -0.043062   0.374343   4.876299   0.373668   0.000000   0.000000
    28  C   -0.004985  -0.049134   0.373668   4.912756   0.000000   0.000000
    29  O    0.000000   0.000000   0.000000   0.000000   8.104554  -0.000932
    30  F    0.000000   0.000000   0.000000   0.000000  -0.000932   9.097594
    31  O    0.000000   0.000000   0.000000   0.000000  -0.000012  -0.000212
    32  H    0.000000   0.000000   0.000000   0.000000   0.000000   0.000000
    33  H    0.000000   0.000000   0.000000   0.000000   0.002781   0.000150
    34  H   -0.000026   0.000004   0.000000   0.000000   0.001800   0.000001
    35  H   -0.000039   0.000000   0.000000   0.000000   0.007742   0.000000
    36  H    0.000029  -0.000001   0.000000   0.000000  -0.000008   0.000000
    37  H   -0.000123   0.000001   0.000000   0.000000  -0.000006   0.000000
    38  H   -0.003942   0.000035   0.000002  -0.000003  -0.000003   0.000000
    39  H   -0.004937   0.000093   0.000001   0.000000   0.000000   0.000000
[...]
     4  C   -0.043555  -0.000244  -0.000001   0.000000   0.000000   0.000000
     5  F   -0.001391   0.000015   0.000000   0.000000   0.000000   0.000000
     6  F    0.000724   0.000219   0.000000   0.000000   0.000000   0.000000
     7  C   -0.016057  -0.000197   0.000097   0.000000   0.000000   0.000000
     8  F   -0.003296   0.000003   0.000000   0.000000   0.000000   0.000000
     9  C    0.002404   0.007656   0.000014  -0.000001   0.000018   0.000000
    10  F    0.000018  -0.000092   0.000000   0.000000  -0.000001   0.000000
    11  C   -0.000069  -0.011495   0.000000   0.000000   0.000000   0.000000
    12  O    0.000000   0.281271   0.000000   0.000000   0.000000   0.000000
    13  O    0.000000   0.008683   0.000000   0.000000   0.000000   0.000000
    14  F    0.000017  -0.000043  -0.000006   0.000001   0.000071   0.000000
    15  C    0.162680   0.000007  -0.000135   0.000005  -0.000044   0.000000
    16  F   -0.045237   0.000000   0.002013  -0.000004   0.000009   0.000000
    17  C   -0.033186   0.000000   0.000347  -0.000210   0.000387  -0.000005
    18  F   -0.001266   0.000000   0.012455   0.000019  -0.000008  -0.000004
    19  C    0.002740   0.000000  -0.028479  -0.003192  -0.003171  -0.000073
    20  N   -0.000047   0.000000   0.337917  -0.052798  -0.038910  -0.003236
    21  C    0.000001   0.000000  -0.029275   0.402098   0.394262  -0.038080
    22  C    0.000000   0.000000  -0.002597  -0.040694  -0.033945   0.381610
    23  C    0.000000   0.000000  -0.000023  -0.001919  -0.002550  -0.033289
    24  C    0.000000   0.000000  -0.000007   0.002627  -0.000699  -0.007303
    25  C    0.000000   0.000000   0.000000  -0.000026  -0.000039   0.000029
    26  C    0.000000   0.000000   0.000000   0.000004   0.000000  -0.000001
    27  C    0.000000   0.000000   0.000000   0.000000   0.000000   0.000000
    28  C    0.000000   0.000000   0.000000   0.000000   0.000000   0.000000
    29  O   -0.000012   0.000000   0.002781   0.001800   0.007742  -0.000008
    30  F   -0.000212   0.000000   0.000150   0.000001   0.000000   0.000000
    31  O    8.385960   0.000000  -0.000036   0.000000   0.000000   0.000000
    32  H    0.000000   0.352071   0.000000   0.000000   0.000000   0.000000
    33  H   -0.000036   0.000000   0.413839   0.000239   0.004097   0.003889
    34  H    0.000000   0.000000   0.000239   0.605672  -0.039015  -0.006414
    35  H    0.000000   0.000000   0.004097  -0.039015   0.566341   0.005073
    36  H    0.000000   0.000000   0.003889  -0.006414   0.005073   0.630239
    37  H    0.000000   0.000000   0.000108   0.005569  -0.005560  -0.037618
    38  H    0.000000   0.000000   0.000014  -0.000095   0.004739   0.005603
    39  H    0.000000   0.000000  -0.000002  -0.000106   0.000035  -0.003406
    40  H    0.000000   0.000000   0.000004   0.001265   0.000353  -0.000169
    41  H    0.000000   0.000000   0.000002   0.000537   0.000068   0.005172
    42  H    0.000000   0.000000   0.000000  -0.000002   0.000001   0.000007
    43  H    0.000000   0.000000   0.000000   0.000011  -0.000001   0.000005
    44  H    0.000000   0.000000   0.000000   0.000001   0.000000  -0.000003
    45  H    0.000000   0.000000   0.000000  -0.000004   0.000000   0.000001
    46  H    0.000000   0.000000   0.000000   0.000000   0.000000   0.000000
    47  H    0.000000   0.000000   0.000000   0.000000   0.000000   0.000000
    48  H    0.000000   0.000000   0.000000   0.000000   0.000000   0.000000
    49  H    0.000000   0.000000   0.000000   0.000000   0.000000   0.000000
    50  H    0.000000   0.000000   0.000000   0.000000   0.000000   0.000000
              37         38         39         40         41         42
     1  F    0.000000   0.000000   0.000000   0.000000   0.000000   0.000000
     2  C    0.000000   0.000000   0.000000   0.000000   0.000000   0.000000
     3  F    0.000000   0.000000   0.000000   0.000000   0.000000   0.000000
     4  C    0.000000   0.000000   0.000000   0.000000   0.000000   0.000000
     5  F    0.000000   0.000000   0.000000   0.000000   0.000000   0.000000
     6  F    0.000000   0.000000   0.000000   0.000000   0.000000   0.000000
     7  C    0.000000   0.000000   0.000000   0.000000   0.000000   0.000000
     8  F    0.000000   0.000000   0.000000   0.000000   0.000000   0.000000
     9  C    0.000000   0.000000   0.000000   0.000000   0.000000   0.000000
    10  F    0.000000   0.000000   0.000000   0.000000   0.000000   0.000000
    11  C    0.000000   0.000000   0.000000   0.000000   0.000000   0.000000
    12  O    0.000000   0.000000   0.000000   0.000000   0.000000   0.000000
    13  O    0.000000   0.000000   0.000000   0.000000   0.000000   0.000000
    14  F    0.000001   0.000000   0.000000   0.000000   0.000000   0.000000
    15  C    0.000012   0.000000   0.000000   0.000000   0.000000   0.000000
    16  F    0.000024   0.000000   0.000000   0.000000   0.000000   0.000000
    17  C   -0.000017   0.000000   0.000000   0.000000   0.000000   0.000000
    18  F    0.000000   0.000000   0.000000   0.000000   0.000000   0.000000
    19  C    0.000196  -0.000008   0.000002   0.000002   0.000000   0.000000
    20  N    0.000401   0.000055  -0.000096  -0.000028  -0.000019   0.000000
    21  C   -0.040144  -0.007235   0.004572   0.002342  -0.000946   0.000003
    22  C    0.382803  -0.038182  -0.032276  -0.004618  -0.003148   0.000010
    23  C   -0.028251   0.388462   0.386895  -0.038614  -0.041357  -0.004289
    24  C    0.004550  -0.038956  -0.039318   0.389511   0.388153  -0.039104
    25  C   -0.000123  -0.003942  -0.004937  -0.037286  -0.038361   0.388096
    26  C    0.000001   0.000035   0.000093  -0.003419  -0.004120  -0.040636
    27  C    0.000000   0.000002   0.000001   0.000107   0.000006  -0.003111
    28  C    0.000000  -0.000003   0.000000  -0.000017   0.000001  -0.000805
    29  O   -0.000006  -0.000003   0.000000   0.000000   0.000000   0.000000
    30  F    0.000000   0.000000   0.000000   0.000000   0.000000   0.000000
    31  O    0.000000   0.000000   0.000000   0.000000   0.000000   0.000000
    32  H    0.000000   0.000000   0.000000   0.000000   0.000000   0.000000
    33  H    0.000108   0.000014  -0.000002   0.000004   0.000002   0.000000
    34  H    0.005569  -0.000095  -0.000106   0.001265   0.000537  -0.000002
    35  H   -0.005560   0.004739   0.000035   0.000353   0.000068   0.000001
    36  H   -0.037618   0.005603  -0.003406  -0.000169   0.005172   0.000007
    37  H    0.614157  -0.003099  -0.005055  -0.000060   0.000054  -0.000006
    38  H   -0.003099   0.623912  -0.035416  -0.005782   0.005666  -0.000403
    39  H   -0.005055  -0.035416   0.625075   0.005545  -0.004905   0.004998
    40  H   -0.000060  -0.005782   0.005545   0.626404  -0.038560   0.005625
    41  H    0.000054   0.005666  -0.004905  -0.038560   0.635582  -0.005584
    42  H   -0.000006  -0.000403   0.004998   0.005625  -0.005584   0.636330
    43  H    0.000004   0.004395  -0.000514  -0.005634   0.005644  -0.038568
    44  H    0.000000   0.000003   0.000005  -0.000513   0.005001  -0.004933
    45  H    0.000000   0.000006   0.000004   0.004517  -0.000416   0.005760
    46  H    0.000000   0.000000  -0.000003   0.000006   0.000005   0.005341
    47  H    0.000000   0.000000   0.000000   0.000004  -0.000006   0.000049
    48  H    0.000000   0.000000   0.000000   0.000000   0.000000   0.000088
    49  H    0.000000   0.000000   0.000000   0.000000   0.000000  -0.000027
    50  H    0.000000  -0.000004   0.000001   0.000011  -0.000002   0.000524
              43         44         45         46         47         48
     1  F    0.000000   0.000000   0.000000   0.000000   0.000000   0.000000
     2  C    0.000000   0.000000   0.000000   0.000000   0.000000   0.000000
     3  F    0.000000   0.000000   0.000000   0.000000   0.000000   0.000000
     4  C    0.000000   0.000000   0.000000   0.000000   0.000000   0.000000
     5  F    0.000000   0.000000   0.000000   0.000000   0.000000   0.000000
     6  F    0.000000   0.000000   0.000000   0.000000   0.000000   0.000000
     7  C    0.000000   0.000000   0.000000   0.000000   0.000000   0.000000
     8  F    0.000000   0.000000   0.000000   0.000000   0.000000   0.000000
     9  C    0.000000   0.000000   0.000000   0.000000   0.000000   0.000000
    10  F    0.000000   0.000000   0.000000   0.000000   0.000000   0.000000
    11  C    0.000000   0.000000   0.000000   0.000000   0.000000   0.000000
    12  O    0.000000   0.000000   0.000000   0.000000   0.000000   0.000000
    13  O    0.000000   0.000000   0.000000   0.000000   0.000000   0.000000
    14  F    0.000000   0.000000   0.000000   0.000000   0.000000   0.000000
    15  C    0.000000   0.000000   0.000000   0.000000   0.000000   0.000000
    16  F    0.000000   0.000000   0.000000   0.000000   0.000000   0.000000
    17  C    0.000000   0.000000   0.000000   0.000000   0.000000   0.000000
    18  F    0.000000   0.000000   0.000000   0.000000   0.000000   0.000000
    19  C    0.000000   0.000000   0.000000   0.000000   0.000000   0.000000
    20  N    0.000000   0.000000   0.000000   0.000000   0.000000   0.000000
    21  C   -0.000023   0.000000  -0.000002   0.000000   0.000000   0.000000
    22  C    0.000124   0.000002   0.000003   0.000000   0.000000   0.000000
    23  C   -0.003476   0.000115   0.000041  -0.000001   0.000002   0.000000
    24  C   -0.038704  -0.005109  -0.004315   0.000045  -0.000145  -0.000030
    25  C    0.389335  -0.040902  -0.039746  -0.007843   0.004800  -0.000821
    26  C   -0.037602   0.385555   0.385985  -0.037903  -0.033679  -0.004884
    27  C   -0.004350  -0.035214  -0.037328   0.389928   0.386292  -0.037125
    28  C    0.002585   0.005235  -0.007233  -0.040843  -0.040389   0.390040
    29  O    0.000000   0.000000   0.000000   0.000000   0.000000   0.000000
    30  F    0.000000   0.000000   0.000000   0.000000   0.000000   0.000000
    31  O    0.000000   0.000000   0.000000   0.000000   0.000000   0.000000
    32  H    0.000000   0.000000   0.000000   0.000000   0.000000   0.000000
    33  H    0.000000   0.000000   0.000000   0.000000   0.000000   0.000000
    34  H    0.000011   0.000001  -0.000004   0.000000   0.000000   0.000000
    35  H   -0.000001   0.000000   0.000000   0.000000   0.000000   0.000000
    36  H    0.000005  -0.000003   0.000001   0.000000   0.000000   0.000000
    37  H    0.000004   0.000000   0.000000   0.000000   0.000000   0.000000
    38  H    0.004395   0.000003   0.000006   0.000000   0.000000   0.000000
    39  H   -0.000514   0.000005   0.000004  -0.000003   0.000000   0.000000
    40  H   -0.005634  -0.000513   0.004517   0.000006   0.000004   0.000000
    41  H    0.005644   0.005001  -0.000416   0.000005  -0.000006   0.000000
    42  H   -0.038568  -0.004933   0.005760   0.005341   0.000049   0.000088
    43  H    0.628913   0.005713  -0.005862  -0.000166  -0.000035   0.000476
    44  H    0.005713   0.642409  -0.037014  -0.003226  -0.004603   0.000047
    45  H   -0.005862  -0.037014   0.637287   0.005784  -0.003225   0.005444
    46  H   -0.000166  -0.003226   0.005784   0.636098  -0.036365   0.005458
    47  H   -0.000035  -0.004603  -0.003225  -0.036365   0.640099  -0.004121
    48  H    0.000476   0.000047   0.005444   0.005458  -0.004121   0.605587
    49  H   -0.000091  -0.000181   0.000008  -0.002557  -0.004761  -0.030361
    50  H    0.001006  -0.000043  -0.000116  -0.005462   0.005444  -0.032178
              49         50
     1  F    0.000000   0.000000
     2  C    0.000000   0.000000
     3  F    0.000000   0.000000
     4  C    0.000000   0.000000
     5  F    0.000000   0.000000
     6  F    0.000000   0.000000
     7  C    0.000000   0.000000
     8  F    0.000000   0.000000
     9  C    0.000000   0.000000
    10  F    0.000000   0.000000
    11  C    0.000000   0.000000
    12  O    0.000000   0.000000
    13  O    0.000000   0.000000
    14  F    0.000000   0.000000
    15  C    0.000000   0.000000
    16  F    0.000000   0.000000
    17  C    0.000000   0.000000
    18  F    0.000000   0.000000
    19  C    0.000000   0.000000
    20  N    0.000000   0.000000
    21  C    0.000000   0.000000
    22  C    0.000000   0.000000
    23  C    0.000000   0.000006
    24  C   -0.000002  -0.000080
    25  C    0.000123   0.002556
    26  C    0.004585  -0.005085
    27  C   -0.029961  -0.035515
    28  C    0.385049   0.391490
    29  O    0.000000   0.000000
    30  F    0.000000   0.000000
    31  O    0.000000   0.000000
    32  H    0.000000   0.000000
    33  H    0.000000   0.000000
    34  H    0.000000   0.000000
    35  H    0.000000   0.000000
    36  H    0.000000   0.000000
    37  H    0.000000   0.000000
    38  H    0.000000  -0.000004
    39  H    0.000000   0.000001
    40  H    0.000000   0.000011
    41  H    0.000000  -0.000002
    42  H   -0.000027   0.000524
    43  H   -0.000091   0.001006
    44  H   -0.000181  -0.000043
    45  H    0.000008  -0.000116
    46  H   -0.002557  -0.005462
    47  H   -0.004761   0.005444
    48  H   -0.030361  -0.032178
    49  H    0.607744  -0.030437
    50  H   -0.030437   0.602521
 Mulliken charges:
               1
     1  F   -0.247560
     2  C    0.757746
     3  F   -0.250184
     4  C    0.546417
     5  F   -0.245909
     6  F   -0.257234
     7  C    0.155155
     8  F   -0.288080
     9  C    0.615108
    10  F   -0.254581
    11  C    0.522188
    12  O   -0.469204
    13  O   -0.439190
    14  F   -0.270405
    15  C    0.501102
    16  F   -0.273063
    17  C    0.550650
    18  F   -0.284216
    19  C    0.533608
    20  N   -0.552050
    21  C   -0.016058
    22  C   -0.214809
    23  C   -0.185379
    24  C   -0.179976
    25  C   -0.175301
    26  C   -0.175017
    27  C   -0.178770
    28  C   -0.317570
    29  O   -0.502631
    30  F   -0.263786
    31  O   -0.507213
    32  H    0.362149
    33  H    0.282595
    34  H    0.124630
    35  H    0.140746
    36  H    0.097980
    37  H    0.112058
    38  H    0.100233
    39  H    0.098806
    40  H    0.099003
    41  H    0.091531
    42  H    0.090638
    43  H    0.096815
    44  H    0.087654
    45  H    0.090421
    46  H    0.091702
    47  H    0.090640
    48  H    0.102379
    49  H    0.100869
    50  H    0.105362
 Sum of Mulliken charges =   0.00000
 Mulliken charges with hydrogens summed into heavy atoms:
               1
     1  F   -0.247560
     2  C    0.757746
     3  F   -0.250184
     4  C    0.546417
     5  F   -0.245909
     6  F   -0.257234
     7  C    0.155155
     8  F   -0.288080
     9  C    0.615108
    10  F   -0.254581
    11  C    0.522188
    12  O   -0.107055
    13  O   -0.439190
    14  F   -0.270405
    15  C    0.501102
    16  F   -0.273063
    17  C    0.550650
    18  F   -0.284216
    19  C    0.533608
    20  N   -0.269456
    21  C    0.249318
    22  C   -0.004771
    23  C    0.013660
    24  C    0.010559
    25  C    0.012151
    26  C    0.003058
    27  C    0.003572
    28  C   -0.008960
    29  O   -0.502631
    30  F   -0.263786
    31  O   -0.507213
 Electronic spatial extent (au):  <R**2>=          24234.7592
 Charge=              0.0000 electrons
 Dipole moment (field-independent basis, Debye):
    X=              1.6339    Y=              0.4301    Z=             -0.6222  Tot=              1.8005
 Quadrupole moment (field-independent basis, Debye-Ang):
   XX=           -165.3244   YY=           -169.1818   ZZ=           -184.8105
   XY=             15.2335   XZ=             -2.4944   YZ=              0.1735
 Traceless Quadrupole moment (field-independent basis, Debye-Ang):
   XX=              7.7811   YY=              3.9238   ZZ=            -11.7049
   XY=             15.2335   XZ=             -2.4944   YZ=              0.1735
 Octapole moment (field-independent basis, Debye-Ang**2):
  XXX=            825.2042  YYY=            -49.7721  ZZZ=            -81.4792  XYY=            262.1435
  XXY=           -119.1599  XXZ=            -10.7805  XZZ=            354.3597  YZZ=             15.1280
  YYZ=            -29.8460  XYZ=              5.4043
 Hexadecapole moment (field-independent basis, Debye-Ang**3):
 XXXX=         -23738.8126 YYYY=          -2054.2287 ZZZZ=          -1551.4567 XXXY=            899.6779
 XXXZ=           1116.8055 YYYX=            355.7897 YYYZ=           -218.9940 ZZZX=           1186.1292
 ZZZY=           -242.4238 XXYY=          -4111.0337 XXZZ=          -4589.2578 YYZZ=           -687.3332
 XXYZ=           -130.2983 YYXZ=            412.8453 ZZXY=            -78.1953
 N-N= 3.744446813489D+03 E-N=-1.214041637947D+04  KE= 1.959589559572D+03
 No NMR shielding tensors so no spin-rotation constants.
 Leave Link  601 at Mon Feb  3 21:51:26 2025, MaxMem=  5368709120 cpu:         2.8
 (Enter /home/k0335/k033513/app/g09/l9999.exe)
 1\1\GINC-C15U05N1\SP\RCAM-B3LYP\6-31G(d,p)\C16H19F10N1O4\K033513\03-Fe
 b-2025\0\\#p CAM-B3LYP/6-31G(d,p) SCRF=(PCM,Solvent=Generic,Read) NoSy
 mm out=wfn\\Title OA1_neu\\0,1\F,0,-6.841474,2.070955,1.876523\C,0,-6.
 172812,1.567368,0.821287\F,0,-6.796009,1.999771,-0.298334\C,0,-6.05229
 1,0.057943,0.852951\F,0,-5.794403,-0.388922,2.10055\F,0,-7.15164,-0.58
 7964,0.421814\C,0,-4.869208,-0.117438,-0.042901\F,0,-5.275441,0.18395,
 -1.325079\C,0,-4.290116,-1.498171,-0.036053\F,0,-3.922419,-1.827763,1.
 228735\C,0,-5.279212,-2.506522,-0.614965\O,0,-6.020558,-3.135674,0.323
 878\O,0,-5.466014,-2.753635,-1.796416\F,0,-3.138239,-1.471393,-0.76745
 4\C,0,-3.96726,1.027124,0.422508\F,0,-3.276275,1.495675,-0.659835\C,0,
 -2.963265,0.828733,1.582877\F,0,-2.605846,2.07929,2.038331\C,0,-1.6724
 78,0.102028,1.156374\N,0,-0.775511,0.884744,0.442755\C,0,0.529846,0.36
 9817,0.075277\C,0,1.176363,1.234779,-1.001998\C,0,2.505151,0.675033,-1
 .51483\C,0,3.605867,0.656417,-0.451872\C,0,4.939758,0.192176,-1.043552
 \C,0,6.038896,0.166905,0.021034\C,0,7.417516,-0.18929,-0.539217\C,0,7.
 506143,-1.608916,-1.077579\O,0,-1.445618,-1.077433,1.414979\F,0,-3.584
 079,0.243087,2.641114\O,0,-4.861204,2.118794,0.787974\H,0,-6.601516,-3
 .751338,-0.174344\H,0,-0.875918,1.892759,0.528742\H,0,1.134081,0.35328
 9,0.988078\H,0,0.416982,-0.662528,-0.274284\H,0,1.324386,2.253334,-0.6
 21874\H,0,0.486972,1.32214,-1.851637\H,0,2.350583,-0.337923,-1.906052\
 H,0,2.833194,1.293014,-2.359887\H,0,3.325506,-0.014579,0.367779\H,0,3.
 722397,1.660348,-0.026232\H,0,5.233576,0.864211,-1.858833\H,0,4.811415
 ,-0.806891,-1.474959\H,0,6.105676,1.156105,0.490798\H,0,5.770168,-0.54
 1602,0.814057\H,0,7.693717,0.518489,-1.329409\H,0,8.157621,-0.074284,0
 .261729\H,0,7.20395,-2.337017,-0.318249\H,0,8.536026,-1.834783,-1.3723
 62\H,0,6.873015,-1.744212,-1.959253\\Version=ES64L-G09RevD.01\HF=-1974
 .5280979\RMSD=7.586e-09\Dipole=0.6428185,0.1692007,-0.2447845\Quadrupo
 le=5.7850808,2.9172406,-8.7023214,11.3257103,-1.8545385,0.1289811\PG=C
 01 [X(C16H19F10N1O4)]\\@

 Writing a WFN file to "cytop/OA1/OA1_neu.wfn"


          EVOLUTION
 IN THE BEGINNING GOD MADE MAN.
 HE WORKED THE DIRT WITH HIS HANDS.
 THEN GOD DECIDED TO GIVE MAN SCIENCE,
 MAN SHOULD BE USEFUL (LIKE AN APPLIANCE.)
 BUT SOON MAN'S KNOWLEDGE GREW TOO GREAT,
 TO THE HEADING SCIENCE HE COULDN'T RELATE
 SO GOD SAID "LETS HAVE DIFFERENT FIELDS,
 WE'LL DIVIDE THEM UP, SEE WHAT IT YIELDS."
 ENTER PHYSICS, CHEMISTRY, BIO
 THEY SPRANG UP AROUND THE NILE.
 BUT CHEMISTRY SURPASSED THE REST
 FAR AND AWAY IT WAS THE BEST.
 EXPERIMENT WAS GOD'S DECREE
 EXPERIMENT DID CHEMISTS WITH LOTS OF GLEE
 BUT SOON THEIR TESTS BEGAN TO BOG,
 THEY FOUND THEMSELVES DEEP IN A FOG.
 "GIVE US SOME HELP" THEY CRIED TO GOD.
 GOD LOOKED AROUND, THEN GAVE THE NOD.
 ENTER EINSTEIN, HEISENBERG, BOHR,
 REACTION PATHS WERE CLEAR ONCE MORE.
 WITH THEORISTS GOD SEND DIRECTION
 AND THEN HE STOPPED, HE'D MADE PERFECTION.
          -- THOMAS A. HOLME, 1981
 Job cpu time:       0 days  0 hours 17 minutes 37.1 seconds.
 File lengths (MBytes):  RWF=    391 Int=      0 D2E=      0 Chk=     13 Scr=      1
 Normal termination of Gaussian 09 at Mon Feb  3 21:51:27 2025.
