 Entering Gaussian System, Link 0=g09
 Initial command:
 /home/k0335/k033513/app/g09/l1.exe "/home/k0335/k033513/app/g09/scratch/Gau-456982.inp" -scrdir="/home/k0335/k033513/app/g09/scratch/"
 Default is to use a total of  36 processors:
                               36 via shared-memory
                                1 via Linda
 Entering Link 1 = /home/k0335/k033513/app/g09/l1.exe PID=    456983.
  
 Copyright (c) 1988,1990,1992,1993,1995,1998,2003,2009,2013,
            Gaussian, Inc.  All Rights Reserved.
  
 This is part of the Gaussian(R) 09 program.  It is based on
 the Gaussian(R) 03 system (copyright 2003, Gaussian, Inc.),
 the Gaussian(R) 98 system (copyright 1998, Gaussian, Inc.),
 the Gaussian(R) 94 system (copyright 1995, Gaussian, Inc.),
 the Gaussian 92(TM) system (copyright 1992, Gaussian, Inc.),
 the Gaussian 90(TM) system (copyright 1990, Gaussian, Inc.),
 the Gaussian 88(TM) system (copyright 1988, Gaussian, Inc.),
 the Gaussian 86(TM) system (copyright 1986, Carnegie Mellon
 University), and the Gaussian 82(TM) system (copyright 1983,
 Carnegie Mellon University). Gaussian is a federally registered
 trademark of Gaussian, Inc.
  
 This software contains proprietary and confidential information,
 including trade secrets, belonging to Gaussian, Inc.
  
 This software is provided under written license and may be
 used, copied, transmitted, or stored only in accord with that
 written license.
  
 The following legend is applicable only to US Government
 contracts under FAR:
  
                    RESTRICTED RIGHTS LEGEND
  
 Use, reproduction and disclosure by the US Government is
 subject to restrictions as set forth in subparagraphs (a)
 and (c) of the Commercial Computer Software - Restricted
 Rights clause in FAR 52.227-19.
  
 Gaussian, Inc.
 340 Quinnipiac St., Bldg. 40, Wallingford CT 06492
  
  
 ---------------------------------------------------------------
 Warning -- This program may not be used in any manner that
 competes with the business of Gaussian, Inc. or will provide
 assistance to any competitor of Gaussian, Inc.  The licensee
 of this program is prohibited from giving any competitor of
 Gaussian, Inc. access to this program.  By using this program,
 the user acknowledges that Gaussian, Inc. is engaged in the
 business of creating and licensing software in the field of
 computational chemistry and represents and warrants to the
 licensee that it is not a competitor of Gaussian, Inc. and that
 it will not use this program in any manner prohibited above.
 ---------------------------------------------------------------
  

 Cite this work as:
 Gaussian 09, Revision D.01,
 M. J. Frisch, G. W. Trucks, H. B. Schlegel, G. E. Scuseria, 
 M. A. Robb, J. R. Cheeseman, G. Scalmani, V. Barone, B. Mennucci, 
 G. A. Petersson, H. Nakatsuji, M. Caricato, X. Li, H. P. Hratchian, 
 A. F. Izmaylov, J. Bloino, G. Zheng, J. L. Sonnenberg, M. Hada, 
 M. Ehara, K. Toyota, R. Fukuda, J. Hasegawa, M. Ishida, T. Nakajima, 
 Y. Honda, O. Kitao, H. Nakai, T. Vreven, J. A. Montgomery, Jr., 
 J. E. Peralta, F. Ogliaro, M. Bearpark, J. J. Heyd, E. Brothers, 
 K. N. Kudin, V. N. Staroverov, T. Keith, R. Kobayashi, J. Normand, 
 K. Raghavachari, A. Rendell, J. C. Burant, S. S. Iyengar, J. Tomasi, 
 M. Cossi, N. Rega, J. M. Millam, M. Klene, J. E. Knox, J. B. Cross, 
 V. Bakken, C. Adamo, J. Jaramillo, R. Gomperts, R. E. Stratmann, 
 O. Yazyev, A. J. Austin, R. Cammi, C. Pomelli, J. W. Ochterski, 
 R. L. Martin, K. Morokuma, V. G. Zakrzewski, G. A. Voth, 
 P. Salvador, J. J. Dannenberg, S. Dapprich, A. D. Daniels, 
 O. Farkas, J. B. Foresman, J. V. Ortiz, J. Cioslowski, 
 and D. J. Fox, Gaussian, Inc., Wallingford CT, 2013.
 
 ******************************************
 Gaussian 09:  ES64L-G09RevD.01 24-Apr-2013
                 5-Mar-2024 
 ******************************************
 %nprocshared=24
 Will use up to   24 processors via shared memory.
 %mem=40GB
 %rwf=A201888830/A201888830_0.rwf
 %nosave
 %chk=A201888830/A201888830_0.chk
 ----------------------------------------------------------------------
 #p CAM-B3LYP/6-31G(d,p) SCRF=(PCM,Solvent=Generic,Read) NoSymm out=wfn
 ----------------------------------------------------------------------
 1/38=1,40=2/1;
 2/12=2,15=1,17=6,18=5,40=1/2;
 3/5=1,6=6,7=101,11=2,16=1,25=1,30=1,70=2203,72=-2,74=-40/1,2,3;
 4//1;
 5/5=2,38=5/2;
 6/7=2,8=2,9=2,10=2,28=1/1;
 99/5=1,6=100,9=1/99;
 Leave Link    1 at Tue Mar  5 17:55:20 2024, MaxMem=  5368709120 cpu:        20.8
 (Enter /home/k0335/k033513/app/g09/l101.exe)
 ------------------
 Title A201888830_0
 ------------------
 Symbolic Z-matrix:
 Charge =  0 Multiplicity = 1
 C                    -0.30092   5.03723   0.26962 
 C                    -0.51814   4.0849   -0.42939 
 C                    -0.78398   2.91545  -1.28321 
 N                    -0.22424   1.71628  -0.67127 
 C                    -1.00524   1.00418   0.21336 
 O                    -2.21038   1.21277   0.32283 
 N                    -0.3759    0.00035   0.89434 
 C                    -1.14181  -0.74615   1.8906 
 F                    -2.11631  -1.45448   1.27443 
 F                    -0.30401  -1.6831    2.43341 
 C                    -1.67829   0.08087   3.1004 
 F                    -0.56925   0.70097   3.65257 
 O                    -2.54129   1.18745   2.83565 
 C                    -3.89021   0.84378   2.62015 
 F                    -4.52538   1.88522   2.05466 
 F                    -3.99585  -0.22812   1.82491 
 F                    -4.47372   0.57876   3.80088 
 C                    -2.194    -0.92296   4.14612 
 F                    -3.21275  -1.676     3.67998 
 F                    -2.65204  -0.27214   5.24537 
 F                    -1.23703  -1.77017   4.58368 
 C                     0.61241  -0.67339   0.21862 
 O                     0.71005  -1.89692   0.22021 
 N                     1.46658   0.12131  -0.51091 
 C                     2.65766  -0.49132  -1.08364 
 F                     3.63626   0.45659  -1.14922 
 F                     3.15288  -1.39246  -0.18623 
 C                     2.46934  -1.16728  -2.46786 
 F                     2.17452  -0.21117  -3.39743 
 O                     1.32105  -2.02106  -2.43715 
 C                     1.22155  -2.8593   -3.55772 
 F                     2.09034  -3.87458  -3.43437 
 F                     1.4582   -2.17934  -4.69 
 F                    -0.02705  -3.35857  -3.60668 
 C                     3.82568  -1.80952  -2.79279 
 F                     3.84913  -2.30894  -4.05247 
 F                     4.85281  -0.93563  -2.71686 
 F                     4.10841  -2.839    -1.96372 
 C                     1.02526   1.29245  -1.07317 
 O                     1.67245   1.89577  -1.92546 
 H                    -0.10898   5.88555   0.88641 
 H                    -0.35352   3.0746   -2.27782 
 H                    -1.86428   2.7971   -1.42213 
 
 NAtoms=     43 NQM=       43 NQMF=       0 NMMI=      0 NMMIF=      0
                NMic=       0 NMicF=      0.
                    Isotopes and Nuclear Properties:
 (Nuclear quadrupole moments (NQMom) in fm**2, nuclear magnetic moments (NMagM)
  in nuclear magnetons)

  Atom         1           2           3           4           5           6           7           8           9          10
 IAtWgt=          12          12          12          14          12          16          14          12          19          19
 AtmWgt=  12.0000000  12.0000000  12.0000000  14.0030740  12.0000000  15.9949146  14.0030740  12.0000000  18.9984033  18.9984033
 NucSpn=           0           0           0           2           0           0           2           0           1           1
 AtZEff=   0.0000000   0.0000000   0.0000000   0.0000000   0.0000000   0.0000000   0.0000000   0.0000000   0.0000000   0.0000000
 NQMom=    0.0000000   0.0000000   0.0000000   2.0440000   0.0000000   0.0000000   2.0440000   0.0000000   0.0000000   0.0000000
 NMagM=    0.0000000   0.0000000   0.0000000   0.4037610   0.0000000   0.0000000   0.4037610   0.0000000   2.6288670   2.6288670
 AtZNuc=   6.0000000   6.0000000   6.0000000   7.0000000   6.0000000   8.0000000   7.0000000   6.0000000   9.0000000   9.0000000

  Atom        11          12          13          14          15          16          17          18          19          20
 IAtWgt=          12          19          16          12          19          19          19          12          19          19
 AtmWgt=  12.0000000  18.9984033  15.9949146  12.0000000  18.9984033  18.9984033  18.9984033  12.0000000  18.9984033  18.9984033
 NucSpn=           0           1           0           0           1           1           1           0           1           1
 AtZEff=   0.0000000   0.0000000   0.0000000   0.0000000   0.0000000   0.0000000   0.0000000   0.0000000   0.0000000   0.0000000
 NQMom=    0.0000000   0.0000000   0.0000000   0.0000000   0.0000000   0.0000000   0.0000000   0.0000000   0.0000000   0.0000000
 NMagM=    0.0000000   2.6288670   0.0000000   0.0000000   2.6288670   2.6288670   2.6288670   0.0000000   2.6288670   2.6288670
 AtZNuc=   6.0000000   9.0000000   8.0000000   6.0000000   9.0000000   9.0000000   9.0000000   6.0000000   9.0000000   9.0000000

  Atom        21          22          23          24          25          26          27          28          29          30
 IAtWgt=          19          12          16          14          12          19          19          12          19          16
 AtmWgt=  18.9984033  12.0000000  15.9949146  14.0030740  12.0000000  18.9984033  18.9984033  12.0000000  18.9984033  15.9949146
 NucSpn=           1           0           0           2           0           1           1           0           1           0
 AtZEff=   0.0000000   0.0000000   0.0000000   0.0000000   0.0000000   0.0000000   0.0000000   0.0000000   0.0000000   0.0000000
 NQMom=    0.0000000   0.0000000   0.0000000   2.0440000   0.0000000   0.0000000   0.0000000   0.0000000   0.0000000   0.0000000
 NMagM=    2.6288670   0.0000000   0.0000000   0.4037610   0.0000000   2.6288670   2.6288670   0.0000000   2.6288670   0.0000000
 AtZNuc=   9.0000000   6.0000000   8.0000000   7.0000000   6.0000000   9.0000000   9.0000000   6.0000000   9.0000000   8.0000000

  Atom        31          32          33          34          35          36          37          38          39          40
 IAtWgt=          12          19          19          19          12          19          19          19          12          16
 AtmWgt=  12.0000000  18.9984033  18.9984033  18.9984033  12.0000000  18.9984033  18.9984033  18.9984033  12.0000000  15.9949146
 NucSpn=           0           1           1           1           0           1           1           1           0           0
 AtZEff=   0.0000000   0.0000000   0.0000000   0.0000000   0.0000000   0.0000000   0.0000000   0.0000000   0.0000000   0.0000000
 NQMom=    0.0000000   0.0000000   0.0000000   0.0000000   0.0000000   0.0000000   0.0000000   0.0000000   0.0000000   0.0000000
 NMagM=    0.0000000   2.6288670   2.6288670   2.6288670   0.0000000   2.6288670   2.6288670   2.6288670   0.0000000   0.0000000
 AtZNuc=   6.0000000   9.0000000   9.0000000   9.0000000   6.0000000   9.0000000   9.0000000   9.0000000   6.0000000   8.0000000

  Atom        41          42          43
 IAtWgt=           1           1           1
 AtmWgt=   1.0078250   1.0078250   1.0078250
 NucSpn=           1           1           1
 AtZEff=   0.0000000   0.0000000   0.0000000
 NQMom=    0.0000000   0.0000000   0.0000000
 NMagM=    2.7928460   2.7928460   2.7928460
 AtZNuc=   1.0000000   1.0000000   1.0000000
 Leave Link  101 at Tue Mar  5 17:55:22 2024, MaxMem=  5368709120 cpu:         1.1
 (Enter /home/k0335/k033513/app/g09/l202.exe)
                          Input orientation:                          
 ---------------------------------------------------------------------
 Center     Atomic      Atomic             Coordinates (Angstroms)
 Number     Number       Type             X           Y           Z
 ---------------------------------------------------------------------
      1          6           0       -0.300917    5.037231    0.269622
      2          6           0       -0.518143    4.084900   -0.429385
      3          6           0       -0.783981    2.915448   -1.283210
      4          7           0       -0.224243    1.716277   -0.671274
      5          6           0       -1.005235    1.004179    0.213360
      6          8           0       -2.210384    1.212768    0.322829
      7          7           0       -0.375898    0.000349    0.894339
      8          6           0       -1.141808   -0.746154    1.890600
      9          9           0       -2.116312   -1.454482    1.274430
     10          9           0       -0.304010   -1.683097    2.433408
     11          6           0       -1.678291    0.080869    3.100405
     12          9           0       -0.569245    0.700973    3.652570
     13          8           0       -2.541286    1.187447    2.835647
     14          6           0       -3.890209    0.843778    2.620151
     15          9           0       -4.525381    1.885221    2.054661
     16          9           0       -3.995851   -0.228118    1.824909
     17          9           0       -4.473724    0.578760    3.800875
     18          6           0       -2.193998   -0.922956    4.146124
     19          9           0       -3.212754   -1.676004    3.679980
     20          9           0       -2.652037   -0.272135    5.245371
     21          9           0       -1.237027   -1.770169    4.583680
     22          6           0        0.612407   -0.673385    0.218616
     23          8           0        0.710046   -1.896917    0.220208
     24          7           0        1.466575    0.121307   -0.510908
     25          6           0        2.657660   -0.491323   -1.083637
     26          9           0        3.636260    0.456593   -1.149220
     27          9           0        3.152879   -1.392463   -0.186227
     28          6           0        2.469340   -1.167280   -2.467859
     29          9           0        2.174524   -0.211171   -3.397434
     30          8           0        1.321046   -2.021059   -2.437149
     31          6           0        1.221553   -2.859300   -3.557720
     32          9           0        2.090336   -3.874578   -3.434371
     33          9           0        1.458203   -2.179338   -4.689998
     34          9           0       -0.027048   -3.358565   -3.606684
     35          6           0        3.825675   -1.809516   -2.792793
     36          9           0        3.849127   -2.308942   -4.052471
     37          9           0        4.852812   -0.935631   -2.716858
     38          9           0        4.108411   -2.838997   -1.963719
     39          6           0        1.025255    1.292453   -1.073173
     40          8           0        1.672445    1.895774   -1.925460
     41          1           0       -0.108977    5.885548    0.886411
     42          1           0       -0.353515    3.074602   -2.277819
     43          1           0       -1.864275    2.797104   -1.422127
 ---------------------------------------------------------------------
                    Distance matrix (angstroms):
                    1          2          3          4          5
     1  C    0.000000
     2  C    1.201138   0.000000
     3  C    2.673313   1.472177   0.000000
     4  N    3.452521   2.399013   1.458007   0.000000
     5  C    4.094476   3.184528   2.437545   1.378263   0.000000
     6  O    4.274975   3.417404   2.741005   2.277393   1.227956
     7  N    5.076029   4.296049   3.661428   2.327778   1.366555
     8  C    6.064834   5.395403   4.858852   3.669971   2.428055
     9  F    6.815250   6.011812   5.235735   4.173656   2.899203
    10  F    7.060084   6.442921   5.932136   4.604471   3.555528
    11  C    5.871628   5.462383   5.296292   4.360548   3.104921
    12  F    5.506312   5.302446   5.414050   4.454828   3.479969
    13  O    5.140484   4.811317   4.799905   4.236372   3.044574
    14  C    5.999421   5.583491   5.401546   5.003403   3.760511
    15  F    5.564856   5.202598   5.118674   5.095003   4.069159
    16  F    6.617806   5.981506   5.464295   4.923071   3.613783
    17  F    7.054079   6.770136   6.702405   6.273129   5.008159
    18  C    7.357639   6.987302   6.796996   5.835478   4.538022
    19  F    8.073219   7.572042   7.184262   6.274725   4.906524
    20  F    7.646909   7.465930   7.501512   6.697362   5.446289
    21  F    8.113451   7.741411   7.522011   6.387142   5.181740
    22  C    5.783416   4.933490   4.133413   2.683724   2.330454
    23  O    7.007631   6.141055   5.258445   3.837031   3.370251
    24  N    5.282004   4.433489   3.669970   2.329917   2.722843
    25  C    6.414780   5.608528   4.846732   3.653615   4.163595
    26  F    6.204572   5.562539   5.059887   4.088853   4.868259
    27  F    7.312829   6.598260   5.938041   4.615678   4.815960
    28  C    7.325577   6.376976   5.353145   4.335667   4.896615
    29  F    6.864461   5.875032   4.795669   4.111093   4.962437
    30  O    7.731548   6.685542   5.489245   4.412926   4.646380
    31  C    8.906271   7.812486   6.522521   5.599804   5.840043
    32  F    9.942736   8.898730   7.680732   6.652040   6.833065
    33  F    8.931473   7.829396   6.526135   5.844363   6.343991
    34  F    9.251494   8.108118   6.733106   5.865964   5.880742
    35  C    8.560671   7.694062   6.771488   5.773551   6.347561
    36  F    9.479958   8.548743   7.511907   6.650355   7.262156
    37  F    8.435346   7.699703   6.975643   6.082230   6.831234
    38  F    9.298653   8.467558   7.583682   6.418164   6.757148
    39  C    4.193470   3.254889   2.439583   1.379273   2.420983
    40  O    4.310603   3.439359   2.736101   2.280927   3.541110
    41  H    1.066260   2.267393   3.739569   4.452245   5.008397
    42  H    3.216230   2.112939   1.095389   2.107782   3.304143
    43  H    3.213141   2.110930   1.095600   2.102777   2.574364
                    6          7          8          9         10
     6  O    0.000000
     7  N    2.271986   0.000000
     8  C    2.727111   1.461650   0.000000
     9  F    2.833481   2.300009   1.353164   0.000000
    10  F    4.058921   2.282081   1.369090   2.163315   0.000000
    11  C    3.046186   2.563092   1.560580   2.425562   2.333476
    12  F    3.747325   2.852384   2.350860   3.562998   2.690817
    13  O    2.534638   3.141144   2.567190   3.098030   3.661587
    14  C    2.869783   4.005020   3.257888   3.199949   4.390990
    15  F    2.968273   4.702903   4.289477   4.191180   5.540426
    16  F    2.742315   3.744625   2.901420   2.310771   4.014589
    17  F    4.197794   5.057142   4.062784   4.009288   4.936849
    18  C    4.379403   3.838240   2.495146   2.921503   2.661440
    19  F    4.540948   4.314824   2.890557   2.652909   3.164614
    20  F    5.160563   4.917981   3.709444   4.177717   3.925708
    21  F    5.291520   4.181808   2.882768   3.438595   2.345586
    22  C    3.396555   1.373778   2.424479   3.028327   2.600893
    23  O    4.267269   2.287651   2.746603   3.048841   2.443825
    24  N    3.925103   2.320357   3.650122   4.302049   3.880701
    25  C    5.346020   3.654669   4.831871   5.411004   4.749886
    26  F    6.076346   4.525672   5.789390   6.528275   5.739270
    27  F    5.984226   3.944593   4.814069   5.468248   4.347072
    28  C    5.945787   4.556656   5.675729   5.925826   5.655082
    29  F    5.924135   4.996870   6.264788   6.464009   6.504492
    30  O    5.526854   4.250238   5.140082   5.090408   5.145615
    31  C    6.589278   5.527230   6.303575   6.038587   6.293204
    32  F    7.648126   6.311505   6.970589   6.762068   6.705693
    33  F    7.077665   6.268954   7.219304   6.991207   7.354901
    34  F    6.411327   5.627007   6.187690   5.640552   6.274282
    35  C    7.434737   5.875693   6.909471   7.209408   6.662091
    36  F    8.262165   6.903230   7.916554   8.043161   7.727021
    37  F    7.983987   6.423100   7.563071   8.047874   7.326442
    38  F    7.846800   6.028218   6.841094   7.151900   6.335636
    39  C    3.524845   2.739319   4.199527   4.788145   4.787166
    40  O    4.538465   3.967318   5.427902   5.984830   5.976154
    41  H    5.154455   5.891254   6.786354   7.619448   7.727589
    42  H    3.698345   4.417479   5.709229   6.019845   6.695805
    43  H    2.382180   3.924681   4.904161   5.040925   6.113246
                   11         12         13         14         15
    11  C    0.000000
    12  F    1.385423   0.000000
    13  O    1.428066   2.189284   0.000000
    14  C    2.388568   3.480673   1.408595   0.000000
    15  F    3.529191   4.427953   2.243538   1.344554   0.000000
    16  F    2.663353   3.993142   2.267416   1.338854   2.190751
    17  F    2.924551   3.909205   2.244211   1.343441   2.181461
    18  C    1.538553   2.349588   2.508338   2.885667   4.206593
    19  F    2.403557   3.555125   3.059921   2.816289   4.128798
    20  F    2.381947   2.796780   2.819471   3.109680   4.283017
    21  F    2.412708   2.723865   3.674807   4.210409   5.529113
    22  C    3.757779   3.882937   4.500814   5.323787   6.026142
    23  O    4.232177   4.490738   5.188929   5.868005   6.714126
    24  N    4.788883   4.670666   5.329074   6.246649   6.752561
    25  C    6.052610   5.853729   6.723697   7.640362   8.191029
    26  F    6.815052   6.387737   7.387516   8.426494   8.883592
    27  F    6.026015   5.742216   6.943427   7.904532   8.644100
    28  C    7.054522   7.083997   7.666700   8.389044   8.871137
    29  F    7.559853   7.619897   7.940170   8.608440   8.888697
    30  O    6.639174   6.933061   7.281105   7.806456   8.343626
    31  C    7.834814   8.238373   8.450459   8.832270   9.329338
    32  F    8.517711   8.844986   9.294576   9.730727  10.347583
    33  F    8.696925   9.055671   9.163323   9.548980   9.890113
    34  F    7.716304   8.334902   8.275944   8.447318   8.932140
    35  C    8.282329   8.195156   9.011066   9.791568  10.338715
    36  F    9.350250   9.378126  10.025382  10.693963  11.181254
    37  F    8.805063   8.523309   9.487384  10.396652  10.893810
    38  F    8.225381   8.121241   9.135898   9.927367  10.630521
    39  C    5.118188   5.022442   5.292458   6.164717   6.398772
    40  O    6.307189   6.129204   6.397296   7.260330   7.365767
    41  H    6.407715   5.894345   5.638067   6.536284   6.072236
    42  H    6.296250   6.391414   5.873264   6.440100   6.131026
    43  H    5.278808   5.641225   4.601954   4.925434   4.472256
                   16         17         18         19         20
    16  F    0.000000
    17  F    2.187203   0.000000
    18  C    3.019522   2.751636   0.000000
    19  F    2.480101   2.586237   1.349902   0.000000
    20  F    3.675232   2.475709   1.357097   2.176167   0.000000
    21  F    4.195217   4.075102   1.350932   2.174635   2.164300
    22  C    4.900457   6.345800   4.833582   5.255297   6.007151
    23  O    5.244561   6.769167   4.979447   5.235187   6.260653
    24  N    5.951154   7.354447   6.014834   6.533758   7.088900
    25  C    7.266232   8.709775   7.146698   7.652273   8.264216
    26  F    8.219695   9.502116   7.995982   8.647435   8.998029
    27  F    7.516961   8.828804   6.897738   7.453136   8.028352
    28  C    7.817198   9.515872   8.096369   8.386949   9.301812
    29  F    8.083729   9.830506   8.746193   9.014338   9.899368
    30  O    7.046217   8.902323   7.543265   7.621921   8.824128
    31  C    7.944628   9.919947   8.646654   8.570156   9.959545
    32  F    8.831669  10.736288   9.194101   9.141689  10.526425
    33  F    8.717682  10.718665   9.643346   9.598318  10.919847
    34  F    7.419791   9.494598   8.410345   8.128666   9.735271
    35  C    9.219559  10.865558   9.228815   9.563164  10.437259
    36  F   10.020833  11.801852  10.278973  10.491023  11.526647
    37  F    9.971312  11.478610   9.836575  10.320903  10.961755
    38  F    9.319305  10.888740   8.984529   9.316831  10.210946
    39  C    5.993540   7.382714   6.520175   7.026017   7.476256
    40  O    7.120798   8.502990   7.730379   8.248862   8.649959
    41  H    7.305168   7.463720   7.831269   8.637970   7.961454
    42  H    6.403667   7.756022   7.786841   8.138727   8.548815
    43  H    4.923294   6.245801   6.704699   6.917990   7.382163
                   21         22         23         24         25
    21  F    0.000000
    22  C    4.865915   0.000000
    23  O    4.779858   1.227423   0.000000
    24  N    6.069759   1.375988   2.275982   0.000000
    25  C    6.994463   2.431475   2.732930   1.456715   0.000000
    26  F    7.846881   3.505925   3.997133   2.286349   1.364003
    27  F    6.493531   2.671136   2.527271   2.289222   1.364786
    28  C    7.989045   3.302920   3.294418   2.548657   1.551919
    29  F    8.818579   3.966065   4.251326   2.990613   2.380244
    30  O    7.476545   3.061288   2.729520   2.884669   2.441029
    31  C    8.573985   4.405678   3.931992   4.269323   3.713597
    32  F    8.932470   5.077029   4.378617   4.990272   4.158632
    33  F    9.666064   5.203629   4.974899   4.770517   4.158597
    34  F    8.430250   4.717204   4.162310   4.891242   4.668458
    35  C    8.946779   4.548018   4.335085   3.807943   2.454202
    36  F   10.037049   5.602998   5.317836   4.911755   3.679308
    37  F    9.543608   5.163992   5.168456   4.177312   2.771915
    38  F    8.519656   4.655589   4.148004   4.225323   2.896687
    39  C    6.818912   2.388238   3.456049   1.372038   2.417998
    40  O    8.017049   3.510174   4.462579   2.278612   2.716164
    41  H    8.576264   6.632190   7.853750   6.136883   7.224947
    42  H    8.445861   4.605714   5.664565   3.893155   4.817579
    43  H    7.571205   4.568401   5.599842   4.368612   5.601448
                   26         27         28         29         30
    26  F    0.000000
    27  F    2.140098   0.000000
    28  C    2.395303   2.392442   0.000000
    29  F    2.763521   3.558719   1.365712   0.000000
    30  O    3.627359   2.969410   1.431244   2.219519   0.000000
    31  C    4.756767   4.153143   2.368059   2.818942   1.402935
    32  F    5.135254   4.223782   2.899526   3.664560   2.240935
    33  F    4.922314   4.875967   2.642832   2.461203   2.262563
    34  F    5.832185   5.067250   3.511496   3.846660   2.230267
    35  C    2.805790   2.724110   1.535478   2.376257   2.538582
    36  F    4.015266   4.033923   2.391276   2.762972   3.013857
    37  F    2.424000   3.082622   2.407613   2.856791   3.705369
    38  F    3.427426   2.482938   2.394859   3.563836   2.943223
    39  C    2.742589   3.538676   3.175030   2.997314   3.595453
    40  O    2.555457   4.003638   3.211158   2.618780   3.965714
    41  H    6.902474   8.047341   8.224429   7.793310   8.695140
    42  H    4.903673   6.051795   5.098842   4.294278   5.366125
    43  H    5.984008   6.652199   5.965745   5.409571   5.864404
                   31         32         33         34         35
    31  C    0.000000
    32  F    1.341935   0.000000
    33  F    1.341792   2.202278   0.000000
    34  F    1.345610   2.186156   2.184060   0.000000
    35  C    2.910088   2.772635   3.056318   4.231483   0.000000
    36  F    2.729802   2.434463   2.477853   4.040441   1.355273
    37  F    4.194472   4.096768   4.118672   5.520456   1.350723
    38  F    3.297757   2.703308   3.858931   4.480101   1.351715
    39  C    4.842371   5.779954   5.032117   5.399814   4.519033
    40  O    5.047604   5.978997   4.929007   5.772596   4.372395
    41  H    9.899140  10.897990   9.929490  10.278533   9.393191
    42  H    6.271378   7.456616   6.058450   6.577089   6.448677
    43  H    6.788078   8.012454   6.817831   6.785275   7.448168
                   36         37         38         39         40
    36  F    0.000000
    37  F    2.162690   0.000000
    38  F    2.170500   2.178108   0.000000
    39  C    5.460816   4.724008   5.231424   0.000000
    40  O    5.190545   4.331039   5.324796   1.228513   0.000000
    41  H   10.354169   9.172316  10.100856   5.120837   5.195996
    42  H    7.056496   6.586392   7.414722   2.555041   2.370297
    43  H    8.101443   7.792875   8.229941   3.276450   3.684308
                   41         42         43
    41  H    0.000000
    42  H    4.239524   0.000000
    43  H    4.236615   1.758297   0.000000
 Symmetry turned off by external request.
 Stoichiometry    C14H3F18N3O5
 Framework group  C1[X(C14H3F18N3O5)]
 Deg. of freedom   123
 Full point group                 C1      NOp   1
 Rotational constants (GHZ):      0.1692593      0.0543185      0.0498239
 Leave Link  202 at Tue Mar  5 17:55:23 2024, MaxMem=  5368709120 cpu:         0.1
 (Enter /home/k0335/k033513/app/g09/l301.exe)
 Standard basis: 6-31G(d,p) (6D, 7F)
 Ernie: Thresh=  0.10000D-02 Tol=  0.10000D-05 Strict=F.
   615 basis functions,  1141 primitive gaussians,   615 cartesian basis functions
   155 alpha electrons      155 beta electrons
       nuclear repulsion energy      5939.7731403597 Hartrees.
 IExCor=20419 DFT=T Ex+Corr=CAM-B3LYP ExCW=0 ScaHFX=  1.000000
 ScaDFX=  1.000000  1.000000  1.000000  0.810000 ScalE2=  1.000000  1.000000
 IRadAn=      0 IRanWt=     -1 IRanGd=            0 ICorTp=0 IEmpDi=  4
  HFx wShort=  0.000000 wLong=  0.330000 cFull=  0.190000 cShort=  0.000000 cLong=  0.460000
  DFx wShort=  0.000000 wLong=  0.330000 cFull=  0.190000 cShort=  0.000000 cLong=  0.460000
 NAtoms=   43 NActive=   43 NUniq=   43 SFac= 1.00D+00 NAtFMM=   60 NAOKFM=F Big=F
 Integral buffers will be    131072 words long.
 Raffenetti 2 integral format.
 Two-electron integral symmetry is turned off.
 Using the following non-standard input for PCM:
 eps=2.05
 --- end of non-standard input.
 ------------------------------------------------------------------------------
 Polarizable Continuum Model (PCM)
 =================================
 Model                : PCM (using non-symmetric T matrix).
 Atomic radii         : UFF (Universal Force Field).
 Polarization charges : Total charges.
 Charge compensation  : None.
 Solution method      : On-the-fly selection.
 Cavity type          : Scaled VdW (van der Waals Surface) (Alpha=1.100).
 Cavity algorithm     : GePol (No added spheres)
                        Default sphere list used, NSphG=   43.
                        Lebedev-Laikov grids with approx.  5.0 points / Ang**2.
                        Smoothing algorithm: Karplus/York (Gamma=1.0000).
                        Polarization charges: spherical gaussians, with
                                              point-specific exponents (IZeta= 3).
                        Self-potential: point-specific (ISelfS= 7).
                        Self-field    : sphere-specific E.n sum rule (ISelfD= 2).
 Solvent              : Generic,
                        Eps                           =   2.050000
                        Eps(infinity)                 =   0.000000
                        RSolv                         =   0.000000 Ang.
                        Molar volume                  =   0.000000 cm**3/mol
                        Thermal expansion coefficient =   0.000000 K**-1
                        Absolute temperature          = 298.150000 K
                        Numeral density               =   0.000000 Ang**-3
                        Hydrogen bond acidity         =   0.000000
                        Hydrogen bond basicity        =   0.000000
                        Surface tension at interface  =   0.000000 (cal/mol)*Ang**-2
                        Carbon aromaticity            =   0.000000
                        Electronegative halogenicity  =   0.000000
 ------------------------------------------------------------------------------
 GePol: Number of generator spheres                  =      43
 GePol: Total number of spheres                      =      43
 GePol: Number of exposed spheres                    =      43 (100.00%)
 GePol: Number of points                             =    3634
 GePol: Average weight of points                     =       0.13
 GePol: Minimum weight of points                     =   0.43D-11
 GePol: Maximum weight of points                     =    0.20577
 GePol: Number of points with low weight             =     156
 GePol: Fraction of low-weight points (<1% of avg)   =       4.29%
 GePol: Cavity surface area                          =    457.570 Ang**2
 GePol: Cavity volume                                =    531.918 Ang**3
 Leave Link  301 at Tue Mar  5 17:55:26 2024, MaxMem=  5368709120 cpu:         1.0
 (Enter /home/k0335/k033513/app/g09/l302.exe)
 NPDir=0 NMtPBC=     1 NCelOv=     1 NCel=       1 NClECP=     1 NCelD=      1
         NCelK=      1 NCelE2=     1 NClLst=     1 CellRange=     0.0.
 One-electron integrals computed using PRISM.
 NBasis=   615 RedAO= T EigKep=  4.60D-04  NBF=   615
 NBsUse=   615 1.00D-06 EigRej= -1.00D+00 NBFU=   615
 Precomputing XC quadrature grid using
 IXCGrd= 4 IRadAn=           0 IRanWt=          -1 IRanGd=           0 AccXCQ= 0.00D+00.
 Generated NRdTot=       0 NPtTot=           0 NUsed=           0 NTot=          32
 NSgBfM=   598   598   598   598   598 MxSgAt=    43 MxSgA2=    43.
 Leave Link  302 at Tue Mar  5 17:55:27 2024, MaxMem=  5368709120 cpu:        13.2
 (Enter /home/k0335/k033513/app/g09/l303.exe)
 DipDrv:  MaxL=1.
 Leave Link  303 at Tue Mar  5 17:55:28 2024, MaxMem=  5368709120 cpu:         1.0
 (Enter /home/k0335/k033513/app/g09/l401.exe)
 ExpMin= 1.61D-01 ExpMax= 7.00D+03 ExpMxC= 1.05D+03 IAcc=1 IRadAn=         1 AccDes= 0.00D+00
 Harris functional with IExCor=20419 and IRadAn=       1 diagonalized for initial guess.
 HarFok:  IExCor=20419 AccDes= 0.00D+00 IRadAn=         1 IDoV= 1 UseB2=F ITyADJ=14
 ICtDFT=  3500011 ScaDFX=  1.000000  1.000000  1.000000  1.000000
 FoFCou: FMM=F IPFlag=           0 FMFlag=      100000 FMFlg1=           0
         NFxFlg=           0 DoJE=T BraDBF=F KetDBF=T FulRan=T
         wScrn=  0.000000 ICntrl=     500 IOpCl=  0 I1Cent=   200000004 NGrid=           0
         NMat0=    1 NMatS0=      1 NMatT0=    0 NMatD0=    1 NMtDS0=    0 NMtDT0=    0
 Symmetry not used in FoFCou.
 Harris En= -2785.78524681613    
 JPrj=0 DoOrth=F DoCkMO=F.
 Leave Link  401 at Tue Mar  5 17:55:29 2024, MaxMem=  5368709120 cpu:        14.9
 (Enter /home/k0335/k033513/app/g09/l502.exe)
 Closed shell SCF:
 Using DIIS extrapolation, IDIIS=  1040.
 Two-electron integral symmetry not used.
 IVT=     1171761 IEndB=     1171761 NGot=  5368709120 MDV=  5367932840
 LenX=  5367932840 LenY=  5367554000
 Requested convergence on RMS density matrix=1.00D-08 within 128 cycles.
 Requested convergence on MAX density matrix=1.00D-06.
 Requested convergence on             energy=1.00D-06.
 No special actions if energy rises.
 Fock matrices will be formed incrementally for  20 cycles.

 Cycle   1  Pass 1  IDiag  1:
 FoFJK:  IHMeth= 1 ICntrl=       0 DoSepK=T KAlg= 0 I1Cent=   0 FoldK=F
 IRaf=         1 NMat=   1 IRICut=       1 DoRegI=T DoRafI=F ISym2E= 0.
 FoFCou: FMM=F IPFlag=           0 FMFlag=      100000 FMFlg1=           0
         NFxFlg=           0 DoJE=T BraDBF=F KetDBF=F FulRan=T
         wScrn=  0.000000 ICntrl=     500 IOpCl=  0 I1Cent=           0 NGrid=           0
         NMat0=    1 NMatS0=      1 NMatT0=    0 NMatD0=    1 NMtDS0=    0 NMtDT0=    0
 Symmetry not used in FoFCou.
 Inv3:  Mode=1 IEnd=    39617868.
 Iteration    1 A*A^-1 deviation from unit magnitude is 5.77D-15 for   3617.
 Iteration    1 A*A^-1 deviation from orthogonality  is 2.21D-15 for   1333    674.
 Iteration    1 A^-1*A deviation from unit magnitude is 6.00D-15 for   3617.
 Iteration    1 A^-1*A deviation from orthogonality  is 1.72D-15 for   3232   3047.
 E= -2870.95237575427    
 DIIS: error= 5.29D-02 at cycle   1 NSaved=   1.
 NSaved= 1 IEnMin= 1 EnMin= -2870.95237575427     IErMin= 1 ErrMin= 5.29D-02
 ErrMax= 5.29D-02  0.00D+00 EMaxC= 1.00D-01 BMatC= 2.37D+00 BMatP= 2.37D+00
 IDIUse=3 WtCom= 4.71D-01 WtEn= 5.29D-01
 Coeff-Com:  0.100D+01
 Coeff-En:   0.100D+01
 Coeff:      0.100D+01
 Gap=     0.593 Goal=   None    Shift=    0.000
 GapD=    0.593 DampG=2.000 DampE=0.500 DampFc=1.0000 IDamp=-1.
 RMSDP=3.01D-03 MaxDP=1.56D-01              OVMax= 2.02D-01

 Cycle   2  Pass 1  IDiag  1:
 RMSU=  3.01D-03    CP:  1.01D+00
 E= -2871.30976720881     Delta-E=       -0.357391454538 Rises=F Damp=F
 DIIS: error= 1.83D-02 at cycle   2 NSaved=   2.
 NSaved= 2 IEnMin= 2 EnMin= -2871.30976720881     IErMin= 2 ErrMin= 1.83D-02
 ErrMax= 1.83D-02  0.00D+00 EMaxC= 1.00D-01 BMatC= 9.01D-01 BMatP= 2.37D+00
 IDIUse=3 WtCom= 8.17D-01 WtEn= 1.83D-01
 Coeff-Com:  0.359D+00 0.641D+00
 Coeff-En:   0.346D+00 0.654D+00
 Coeff:      0.357D+00 0.643D+00
 Gap=     0.337 Goal=   None    Shift=    0.000
 RMSDP=1.67D-03 MaxDP=1.53D-01 DE=-3.57D-01 OVMax= 1.37D-01

 Cycle   3  Pass 1  IDiag  1:
 RMSU=  1.08D-03    CP:  1.00D+00  5.74D-01
 E= -2871.69592175901     Delta-E=       -0.386154550208 Rises=F Damp=F
 DIIS: error= 1.36D-02 at cycle   3 NSaved=   3.
 NSaved= 3 IEnMin= 3 EnMin= -2871.69592175901     IErMin= 3 ErrMin= 1.36D-02
 ErrMax= 1.36D-02  0.00D+00 EMaxC= 1.00D-01 BMatC= 2.69D-01 BMatP= 9.01D-01
 IDIUse=3 WtCom= 8.64D-01 WtEn= 1.36D-01
 Coeff-Com:  0.118D+00 0.369D+00 0.514D+00
 Coeff-En:   0.000D+00 0.243D+00 0.757D+00
 Coeff:      0.102D+00 0.352D+00 0.547D+00
 Gap=     0.363 Goal=   None    Shift=    0.000
 RMSDP=8.36D-04 MaxDP=7.55D-02 DE=-3.86D-01 OVMax= 9.72D-02

 Cycle   4  Pass 1  IDiag  1:
 RMSU=  3.44D-04    CP:  1.00D+00  6.95D-01  3.79D-01
 E= -2871.86928152694     Delta-E=       -0.173359767930 Rises=F Damp=F
 DIIS: error= 4.39D-03 at cycle   4 NSaved=   4.
 NSaved= 4 IEnMin= 4 EnMin= -2871.86928152694     IErMin= 4 ErrMin= 4.39D-03
 ErrMax= 4.39D-03  0.00D+00 EMaxC= 1.00D-01 BMatC= 2.70D-02 BMatP= 2.69D-01
 IDIUse=3 WtCom= 9.56D-01 WtEn= 4.39D-02
 Coeff-Com:  0.812D-02 0.975D-01 0.290D+00 0.605D+00
 Coeff-En:   0.000D+00 0.000D+00 0.624D-01 0.938D+00
 Coeff:      0.776D-02 0.932D-01 0.280D+00 0.620D+00
 Gap=     0.350 Goal=   None    Shift=    0.000
 RMSDP=2.58D-04 MaxDP=2.41D-02 DE=-1.73D-01 OVMax= 2.42D-02

 Cycle   5  Pass 1  IDiag  1:
 RMSU=  1.10D-04    CP:  1.00D+00  6.81D-01  5.65D-01  6.83D-01
 E= -2871.88701690550     Delta-E=       -0.017735378560 Rises=F Damp=F
 DIIS: error= 9.14D-04 at cycle   5 NSaved=   5.
 NSaved= 5 IEnMin= 5 EnMin= -2871.88701690550     IErMin= 5 ErrMin= 9.14D-04
 ErrMax= 9.14D-04  0.00D+00 EMaxC= 1.00D-01 BMatC= 1.93D-03 BMatP= 2.70D-02
 IDIUse=3 WtCom= 9.91D-01 WtEn= 9.14D-03
 Coeff-Com: -0.177D-02 0.294D-01 0.121D+00 0.345D+00 0.507D+00
 Coeff-En:   0.000D+00 0.000D+00 0.000D+00 0.000D+00 0.100D+01
 Coeff:     -0.175D-02 0.291D-01 0.120D+00 0.342D+00 0.511D+00
 Gap=     0.333 Goal=   None    Shift=    0.000
 RMSDP=5.96D-05 MaxDP=4.46D-03 DE=-1.77D-02 OVMax= 5.59D-03

 Cycle   6  Pass 1  IDiag  1:
 RMSU=  2.75D-05    CP:  1.00D+00  6.87D-01  5.50D-01  7.20D-01  5.90D-01
 E= -2871.88837068713     Delta-E=       -0.001353781628 Rises=F Damp=F
 DIIS: error= 1.08D-04 at cycle   6 NSaved=   6.
 NSaved= 6 IEnMin= 6 EnMin= -2871.88837068713     IErMin= 6 ErrMin= 1.08D-04
 ErrMax= 1.08D-04  0.00D+00 EMaxC= 1.00D-01 BMatC= 2.99D-05 BMatP= 1.93D-03
 IDIUse=3 WtCom= 9.99D-01 WtEn= 1.08D-03
 Coeff-Com: -0.687D-03-0.237D-02-0.107D-02 0.142D-01 0.120D+00 0.870D+00
 Coeff-En:   0.000D+00 0.000D+00 0.000D+00 0.000D+00 0.000D+00 0.100D+01
 Coeff:     -0.686D-03-0.237D-02-0.107D-02 0.142D-01 0.120D+00 0.870D+00
 Gap=     0.334 Goal=   None    Shift=    0.000
 RMSDP=1.18D-05 MaxDP=8.13D-04 DE=-1.35D-03 OVMax= 8.59D-04

 Cycle   7  Pass 1  IDiag  1:
 RMSU=  8.07D-06    CP:  1.00D+00  6.87D-01  5.52D-01  7.32D-01  6.53D-01
                    CP:  1.01D+00
 E= -2871.88839601195     Delta-E=       -0.000025324820 Rises=F Damp=F
 DIIS: error= 4.38D-05 at cycle   7 NSaved=   7.
 NSaved= 7 IEnMin= 7 EnMin= -2871.88839601195     IErMin= 7 ErrMin= 4.38D-05
 ErrMax= 4.38D-05  0.00D+00 EMaxC= 1.00D-01 BMatC= 4.34D-06 BMatP= 2.99D-05
 IDIUse=1 WtCom= 1.00D+00 WtEn= 0.00D+00
 Coeff-Com: -0.165D-03-0.275D-02-0.707D-02-0.136D-01 0.259D-01 0.376D+00
 Coeff-Com:  0.622D+00
 Coeff:     -0.165D-03-0.275D-02-0.707D-02-0.136D-01 0.259D-01 0.376D+00
 Coeff:      0.622D+00
 Gap=     0.334 Goal=   None    Shift=    0.000
 RMSDP=3.68D-06 MaxDP=3.32D-04 DE=-2.53D-05 OVMax= 4.85D-04

 Cycle   8  Pass 1  IDiag  1:
 RMSU=  2.58D-06    CP:  1.00D+00  6.87D-01  5.53D-01  7.32D-01  6.61D-01
                    CP:  1.07D+00  8.07D-01
 E= -2871.88839948847     Delta-E=       -0.000003476518 Rises=F Damp=F
 DIIS: error= 1.21D-05 at cycle   8 NSaved=   8.
 NSaved= 8 IEnMin= 8 EnMin= -2871.88839948847     IErMin= 8 ErrMin= 1.21D-05
 ErrMax= 1.21D-05  0.00D+00 EMaxC= 1.00D-01 BMatC= 4.25D-07 BMatP= 4.34D-06
 IDIUse=1 WtCom= 1.00D+00 WtEn= 0.00D+00
 Coeff-Com:  0.696D-05-0.909D-03-0.273D-02-0.761D-02-0.384D-02 0.430D-01
 Coeff-Com:  0.243D+00 0.729D+00
 Coeff:      0.696D-05-0.909D-03-0.273D-02-0.761D-02-0.384D-02 0.430D-01
 Coeff:      0.243D+00 0.729D+00
 Gap=     0.334 Goal=   None    Shift=    0.000
 RMSDP=1.50D-06 MaxDP=1.24D-04 DE=-3.48D-06 OVMax= 1.92D-04

 Cycle   9  Pass 1  IDiag  1:
 RMSU=  1.04D-06    CP:  1.00D+00  6.87D-01  5.54D-01  7.32D-01  6.66D-01
                    CP:  1.09D+00  8.87D-01  9.99D-01
 E= -2871.88839988613     Delta-E=       -0.000000397664 Rises=F Damp=F
 DIIS: error= 8.83D-06 at cycle   9 NSaved=   9.
 NSaved= 9 IEnMin= 9 EnMin= -2871.88839988613     IErMin= 9 ErrMin= 8.83D-06
 ErrMax= 8.83D-06  0.00D+00 EMaxC= 1.00D-01 BMatC= 6.98D-08 BMatP= 4.25D-07
 IDIUse=1 WtCom= 1.00D+00 WtEn= 0.00D+00
 Coeff-Com:  0.236D-04-0.870D-05-0.134D-03-0.150D-02-0.589D-02-0.415D-01
 Coeff-Com:  0.155D-01 0.325D+00 0.709D+00
 Coeff:      0.236D-04-0.870D-05-0.134D-03-0.150D-02-0.589D-02-0.415D-01
 Coeff:      0.155D-01 0.325D+00 0.709D+00
 Gap=     0.334 Goal=   None    Shift=    0.000
 RMSDP=6.66D-07 MaxDP=7.67D-05 DE=-3.98D-07 OVMax= 1.18D-04

 Cycle  10  Pass 1  IDiag  1:
 RMSU=  3.88D-07    CP:  1.00D+00  6.86D-01  5.54D-01  7.33D-01  6.67D-01
                    CP:  1.10D+00  9.18D-01  1.13D+00  9.15D-01
 E= -2871.88839995782     Delta-E=       -0.000000071690 Rises=F Damp=F
 DIIS: error= 3.06D-06 at cycle  10 NSaved=  10.
 NSaved=10 IEnMin=10 EnMin= -2871.88839995782     IErMin=10 ErrMin= 3.06D-06
 ErrMax= 3.06D-06  0.00D+00 EMaxC= 1.00D-01 BMatC= 1.19D-08 BMatP= 6.98D-08
 IDIUse=1 WtCom= 1.00D+00 WtEn= 0.00D+00
 Coeff-Com:  0.100D-04 0.109D-03 0.298D-03 0.195D-03-0.232D-02-0.264D-01
 Coeff-Com: -0.213D-01 0.750D-01 0.359D+00 0.615D+00
 Coeff:      0.100D-04 0.109D-03 0.298D-03 0.195D-03-0.232D-02-0.264D-01
 Coeff:     -0.213D-01 0.750D-01 0.359D+00 0.615D+00
 Gap=     0.334 Goal=   None    Shift=    0.000
 RMSDP=2.17D-07 MaxDP=1.57D-05 DE=-7.17D-08 OVMax= 3.21D-05

 Cycle  11  Pass 1  IDiag  1:
 RMSU=  1.44D-07    CP:  1.00D+00  6.86D-01  5.54D-01  7.33D-01  6.67D-01
                    CP:  1.10D+00  9.27D-01  1.14D+00  1.01D+00  8.71D-01
 E= -2871.88839996824     Delta-E=       -0.000000010414 Rises=F Damp=F
 DIIS: error= 1.06D-06 at cycle  11 NSaved=  11.
 NSaved=11 IEnMin=11 EnMin= -2871.88839996824     IErMin=11 ErrMin= 1.06D-06
 ErrMax= 1.06D-06  0.00D+00 EMaxC= 1.00D-01 BMatC= 1.27D-09 BMatP= 1.19D-08
 IDIUse=1 WtCom= 1.00D+00 WtEn= 0.00D+00
 Coeff-Com:  0.115D-05 0.467D-04 0.155D-03 0.278D-03-0.216D-04-0.527D-02
 Coeff-Com: -0.106D-01-0.131D-01 0.570D-01 0.265D+00 0.706D+00
 Coeff:      0.115D-05 0.467D-04 0.155D-03 0.278D-03-0.216D-04-0.527D-02
 Coeff:     -0.106D-01-0.131D-01 0.570D-01 0.265D+00 0.706D+00
 Gap=     0.334 Goal=   None    Shift=    0.000
 RMSDP=7.79D-08 MaxDP=6.05D-06 DE=-1.04D-08 OVMax= 1.43D-05

 Cycle  12  Pass 1  IDiag  1:
 RMSU=  4.35D-08    CP:  1.00D+00  6.86D-01  5.54D-01  7.33D-01  6.67D-01
                    CP:  1.10D+00  9.28D-01  1.16D+00  1.04D+00  9.68D-01
                    CP:  9.30D-01
 E= -2871.88839996932     Delta-E=       -0.000000001086 Rises=F Damp=F
 DIIS: error= 2.69D-07 at cycle  12 NSaved=  12.
 NSaved=12 IEnMin=12 EnMin= -2871.88839996932     IErMin=12 ErrMin= 2.69D-07
 ErrMax= 2.69D-07  0.00D+00 EMaxC= 1.00D-01 BMatC= 1.27D-10 BMatP= 1.27D-09
 IDIUse=1 WtCom= 1.00D+00 WtEn= 0.00D+00
 Coeff-Com: -0.494D-06 0.514D-05 0.287D-04 0.786D-04 0.315D-03 0.110D-02
 Coeff-Com: -0.133D-02-0.134D-01-0.205D-01 0.123D-01 0.229D+00 0.793D+00
 Coeff:     -0.494D-06 0.514D-05 0.287D-04 0.786D-04 0.315D-03 0.110D-02
 Coeff:     -0.133D-02-0.134D-01-0.205D-01 0.123D-01 0.229D+00 0.793D+00
 Gap=     0.334 Goal=   None    Shift=    0.000
 RMSDP=3.04D-08 MaxDP=1.97D-06 DE=-1.09D-09 OVMax= 3.57D-06

 Cycle  13  Pass 1  IDiag  1:
 RMSU=  1.49D-08    CP:  1.00D+00  6.86D-01  5.54D-01  7.33D-01  6.67D-01
                    CP:  1.10D+00  9.29D-01  1.16D+00  1.05D+00  9.96D-01
                    CP:  1.03D+00  9.68D-01
 E= -2871.88839996962     Delta-E=       -0.000000000293 Rises=F Damp=F
 DIIS: error= 8.26D-08 at cycle  13 NSaved=  13.
 NSaved=13 IEnMin=13 EnMin= -2871.88839996962     IErMin=13 ErrMin= 8.26D-08
 ErrMax= 8.26D-08  0.00D+00 EMaxC= 1.00D-01 BMatC= 1.46D-11 BMatP= 1.27D-10
 IDIUse=1 WtCom= 1.00D+00 WtEn= 0.00D+00
 Coeff-Com: -0.308D-06-0.283D-05-0.323D-05 0.114D-05 0.133D-03 0.933D-03
 Coeff-Com:  0.587D-03-0.397D-02-0.133D-01-0.247D-01 0.121D-01 0.292D+00
 Coeff-Com:  0.736D+00
 Coeff:     -0.308D-06-0.283D-05-0.323D-05 0.114D-05 0.133D-03 0.933D-03
 Coeff:      0.587D-03-0.397D-02-0.133D-01-0.247D-01 0.121D-01 0.292D+00
 Coeff:      0.736D+00
 Gap=     0.334 Goal=   None    Shift=    0.000
 RMSDP=9.19D-09 MaxDP=6.12D-07 DE=-2.93D-10 OVMax= 1.49D-06

 Error on total polarization charges =  0.00146
 SCF Done:  E(RCAM-B3LYP) =  -2871.88839997     A.U. after   13 cycles
            NFock= 13  Conv=0.92D-08     -V/T= 2.0073
 KE= 2.850958630395D+03 PE=-1.866586078314D+04 EE= 7.003240612415D+03
 Leave Link  502 at Tue Mar  5 17:56:29 2024, MaxMem=  5368709120 cpu:      1305.6
 (Enter /home/k0335/k033513/app/g09/l601.exe)
 Copying SCF densities to generalized density rwf, IOpCl= 0 IROHF=0.

 **********************************************************************

            Population analysis using the SCF density.

 **********************************************************************

 Alpha  occ. eigenvalues --  -24.83856 -24.83740 -24.83619 -24.83459 -24.83454
 Alpha  occ. eigenvalues --  -24.83391 -24.83358 -24.83267 -24.83212 -24.83179
 Alpha  occ. eigenvalues --  -24.83127 -24.83096 -24.83073 -24.83040 -24.83028
 Alpha  occ. eigenvalues --  -24.83014 -24.82845 -24.82644 -19.33303 -19.32743
 Alpha  occ. eigenvalues --  -19.25552 -19.25201 -19.24507 -14.53256 -14.53100
 Alpha  occ. eigenvalues --  -14.51730 -10.59808 -10.59333 -10.55534 -10.55407
 Alpha  occ. eigenvalues --  -10.53733 -10.53606 -10.49490 -10.49261 -10.47297
 Alpha  occ. eigenvalues --  -10.46658 -10.46426 -10.35289 -10.28086 -10.27374
 Alpha  occ. eigenvalues --   -1.43454  -1.43084  -1.41875  -1.41699  -1.39410
 Alpha  occ. eigenvalues --   -1.39341  -1.35886  -1.35330  -1.33763  -1.33622
 Alpha  occ. eigenvalues --   -1.33512  -1.33127  -1.32910  -1.32613  -1.32330
 Alpha  occ. eigenvalues --   -1.32255  -1.31844  -1.31759  -1.24259  -1.20897
 Alpha  occ. eigenvalues --   -1.20450  -1.18843  -1.18568  -1.10883  -1.08966
 Alpha  occ. eigenvalues --   -1.07937  -0.93994  -0.93031  -0.89694  -0.86060
 Alpha  occ. eigenvalues --   -0.84634  -0.82505  -0.82278  -0.82172  -0.79628
 Alpha  occ. eigenvalues --   -0.78463  -0.76729  -0.75400  -0.75169  -0.73957
 Alpha  occ. eigenvalues --   -0.73222  -0.72604  -0.71404  -0.70985  -0.70697
 Alpha  occ. eigenvalues --   -0.70100  -0.69616  -0.69242  -0.68644  -0.68444
 Alpha  occ. eigenvalues --   -0.68031  -0.67400  -0.66774  -0.66491  -0.65711
 Alpha  occ. eigenvalues --   -0.64869  -0.64571  -0.63662  -0.61867  -0.60446
 Alpha  occ. eigenvalues --   -0.60041  -0.59434  -0.57883  -0.57788  -0.57383
 Alpha  occ. eigenvalues --   -0.57311  -0.57029  -0.56859  -0.56793  -0.56346
 Alpha  occ. eigenvalues --   -0.56173  -0.55849  -0.55793  -0.55563  -0.55307
 Alpha  occ. eigenvalues --   -0.55101  -0.54847  -0.54638  -0.54212  -0.54064
 Alpha  occ. eigenvalues --   -0.53718  -0.53592  -0.53162  -0.53020  -0.52543
 Alpha  occ. eigenvalues --   -0.52493  -0.52286  -0.51773  -0.51296  -0.51214
 Alpha  occ. eigenvalues --   -0.50980  -0.50843  -0.50639  -0.50587  -0.50337
 Alpha  occ. eigenvalues --   -0.50147  -0.49895  -0.49844  -0.49786  -0.49089
 Alpha  occ. eigenvalues --   -0.48991  -0.48776  -0.48732  -0.47998  -0.46033
 Alpha  occ. eigenvalues --   -0.44966  -0.43485  -0.41710  -0.40747  -0.39616
 Alpha  occ. eigenvalues --   -0.38573  -0.38154  -0.36885  -0.35401  -0.34701
 Alpha virt. eigenvalues --   -0.01295   0.00466   0.05133   0.05500   0.06870
 Alpha virt. eigenvalues --    0.07892   0.08303   0.09333   0.10592   0.13957
 Alpha virt. eigenvalues --    0.15207   0.15308   0.17163   0.17239   0.17762
 Alpha virt. eigenvalues --    0.18711   0.19021   0.19677   0.19761   0.20824
 Alpha virt. eigenvalues --    0.21712   0.21987   0.22468   0.22523   0.23221
 Alpha virt. eigenvalues --    0.23551   0.24408   0.24738   0.24875   0.25416
 Alpha virt. eigenvalues --    0.26334   0.26471   0.26933   0.27091   0.27461
 Alpha virt. eigenvalues --    0.28795   0.29200   0.30256   0.30525   0.32822
 Alpha virt. eigenvalues --    0.33938   0.36758   0.37593   0.38319   0.39749
 Alpha virt. eigenvalues --    0.42508   0.42940   0.46818   0.46965   0.47451
 Alpha virt. eigenvalues --    0.48588   0.49481   0.49929   0.50122   0.51228
 Alpha virt. eigenvalues --    0.51597   0.51811   0.52548   0.52972   0.53710
 Alpha virt. eigenvalues --    0.53869   0.55484   0.55718   0.56417   0.56472
 Alpha virt. eigenvalues --    0.56848   0.57491   0.58236   0.58859   0.59530
 Alpha virt. eigenvalues --    0.60467   0.61367   0.62568   0.63359   0.63933
 Alpha virt. eigenvalues --    0.65208   0.66619   0.67685   0.68042   0.69459
 Alpha virt. eigenvalues --    0.69828   0.70828   0.72945   0.73201   0.75360
 Alpha virt. eigenvalues --    0.77500   0.77912   0.79368   0.80293   0.80816
 Alpha virt. eigenvalues --    0.81790   0.83683   0.84059   0.84500   0.86085
 Alpha virt. eigenvalues --    0.86472   0.88046   0.89316   0.90025   0.90951
 Alpha virt. eigenvalues --    0.92281   0.92404   0.93233   0.93758   0.95606
 Alpha virt. eigenvalues --    0.96062   0.96353   0.96978   0.98593   1.00039
 Alpha virt. eigenvalues --    1.01001   1.01904   1.02859   1.03271   1.04873
 Alpha virt. eigenvalues --    1.05476   1.06197   1.06550   1.07263   1.08675
 Alpha virt. eigenvalues --    1.09286   1.09772   1.10449   1.11480   1.12230
 Alpha virt. eigenvalues --    1.12772   1.13422   1.14158   1.14636   1.15080
 Alpha virt. eigenvalues --    1.16049   1.16332   1.16974   1.17085   1.17916
 Alpha virt. eigenvalues --    1.18673   1.19659   1.20253   1.20799   1.22202
 Alpha virt. eigenvalues --    1.22401   1.23980   1.25130   1.25534   1.26216
 Alpha virt. eigenvalues --    1.26700   1.27457   1.27893   1.28814   1.29574
 Alpha virt. eigenvalues --    1.30110   1.31006   1.31760   1.32331   1.32509
 Alpha virt. eigenvalues --    1.33212   1.33532   1.33831   1.34323   1.35077
 Alpha virt. eigenvalues --    1.36118   1.36551   1.36837   1.37536   1.38004
 Alpha virt. eigenvalues --    1.38526   1.38878   1.39693   1.39956   1.40057
 Alpha virt. eigenvalues --    1.40786   1.41072   1.41600   1.41917   1.42369
 Alpha virt. eigenvalues --    1.43554   1.43855   1.44228   1.44640   1.45543
 Alpha virt. eigenvalues --    1.46714   1.46823   1.47375   1.47516   1.49767
 Alpha virt. eigenvalues --    1.50101   1.50584   1.50913   1.52792   1.53242
 Alpha virt. eigenvalues --    1.53485   1.54297   1.54416   1.55609   1.55896
 Alpha virt. eigenvalues --    1.56132   1.56776   1.57326   1.57381   1.58760
 Alpha virt. eigenvalues --    1.58868   1.59371   1.59824   1.61248   1.62416
 Alpha virt. eigenvalues --    1.63290   1.65050   1.65599   1.65833   1.66579
 Alpha virt. eigenvalues --    1.67534   1.68451   1.68996   1.69676   1.70512
 Alpha virt. eigenvalues --    1.71198   1.71518   1.72534   1.73566   1.74130
 Alpha virt. eigenvalues --    1.74294   1.75027   1.76040   1.76350   1.76742
 Alpha virt. eigenvalues --    1.77941   1.78050   1.79801   1.80177   1.80682
 Alpha virt. eigenvalues --    1.81361   1.81997   1.83217   1.83555   1.83801
 Alpha virt. eigenvalues --    1.84384   1.84721   1.85078   1.85303   1.85516
 Alpha virt. eigenvalues --    1.86406   1.86678   1.87183   1.87397   1.88328
 Alpha virt. eigenvalues --    1.88699   1.89431   1.89779   1.90410   1.90700
 Alpha virt. eigenvalues --    1.90894   1.91452   1.91805   1.91880   1.92500
 Alpha virt. eigenvalues --    1.93067   1.93301   1.93609   1.94076   1.94296
 Alpha virt. eigenvalues --    1.94912   1.95912   1.96329   1.96852   1.97321
 Alpha virt. eigenvalues --    1.97855   1.98433   1.99268   1.99538   2.00168
 Alpha virt. eigenvalues --    2.00468   2.00777   2.01114   2.01810   2.02032
 Alpha virt. eigenvalues --    2.02195   2.03053   2.03169   2.03729   2.03771
 Alpha virt. eigenvalues --    2.04136   2.04690   2.04880   2.05043   2.05450
 Alpha virt. eigenvalues --    2.05765   2.05804   2.06302   2.08028   2.08597
 Alpha virt. eigenvalues --    2.08644   2.08896   2.09556   2.09850   2.10196
 Alpha virt. eigenvalues --    2.10703   2.11271   2.12002   2.12166   2.12314
 Alpha virt. eigenvalues --    2.12757   2.13923   2.14709   2.14831   2.16427
 Alpha virt. eigenvalues --    2.17235   2.18145   2.18505   2.18961   2.20079
 Alpha virt. eigenvalues --    2.20615   2.21579   2.22709   2.23595   2.25224
 Alpha virt. eigenvalues --    2.26100   2.26799   2.27689   2.27848   2.28482
 Alpha virt. eigenvalues --    2.29186   2.31078   2.31630   2.32172   2.34130
 Alpha virt. eigenvalues --    2.34549   2.36761   2.37358   2.39019   2.39451
 Alpha virt. eigenvalues --    2.40047   2.40158   2.40987   2.43302   2.43771
 Alpha virt. eigenvalues --    2.44698   2.45835   2.47804   2.48636   2.48774
 Alpha virt. eigenvalues --    2.49048   2.49654   2.51238   2.52402   2.53167
 Alpha virt. eigenvalues --    2.55609   2.56529   2.58673   2.58774   2.60212
 Alpha virt. eigenvalues --    2.60941   2.62388   2.62773   2.64751   2.65343
 Alpha virt. eigenvalues --    2.66324   2.67472   2.68378   2.69482   2.69984
 Alpha virt. eigenvalues --    2.71760   2.72553   2.73749   2.75767   2.77575
 Alpha virt. eigenvalues --    2.78405   2.79703   2.80191   2.81770   2.83152
 Alpha virt. eigenvalues --    2.83512   2.86017   2.86863   2.87184   2.89016
 Alpha virt. eigenvalues --    2.89550   2.90673   2.91101   2.92364   2.93081
 Alpha virt. eigenvalues --    2.94025   2.94493   2.95582   2.97639   2.99093
 Alpha virt. eigenvalues --    2.99169   2.99857   3.02967   3.04335   3.04770
 Alpha virt. eigenvalues --    3.06223   3.06900   3.07262   3.07714   3.08124
 Alpha virt. eigenvalues --    3.09036   3.09147   3.10777   3.12896   3.14109
 Alpha virt. eigenvalues --    3.14579   3.16397   3.16733   3.17552   3.19611
 Alpha virt. eigenvalues --    3.20902   3.21352   3.21810   3.22861   3.26644
 Alpha virt. eigenvalues --    3.29102   3.30633   3.33347   3.34009   3.34909
 Alpha virt. eigenvalues --    3.35133   3.40786   3.47971   3.51624   3.78284
 Alpha virt. eigenvalues --    4.07147   4.11702   4.16353   4.18847   4.25351
 Alpha virt. eigenvalues --    4.25967   4.30169   4.32043   4.33615   4.37026
 Alpha virt. eigenvalues --    4.40422   4.42869   4.47702   4.48734   4.50252
 Alpha virt. eigenvalues --    4.58449   4.58641   4.65598   4.67967   4.71089
 Alpha virt. eigenvalues --    4.75823   4.78502   4.83073   4.87394   4.91421
 Alpha virt. eigenvalues --    5.07636   5.13026   5.14444   5.25102   5.26747
 Alpha virt. eigenvalues --    5.32692   5.42107   5.43668   5.58787   5.67825
 Alpha virt. eigenvalues --    5.72346   6.21934   6.25411   6.60735   6.73229
          Condensed to atoms (all electrons):
               1          2          3          4          5          6
     1  C    5.310529   0.892676  -0.145386  -0.002483   0.000100  -0.000318
     2  C    0.892676   4.625626   0.327478  -0.071758   0.001270  -0.001244
     3  C   -0.145386   0.327478   5.016517   0.255400  -0.021212  -0.001262
     4  N   -0.002483  -0.071758   0.255400   7.359523   0.233161  -0.088334
     5  C    0.000100   0.001270  -0.021212   0.233161   4.218503   0.584207
     6  O   -0.000318  -0.001244  -0.001262  -0.088334   0.584207   8.072084
     7  N   -0.000004  -0.000394   0.002825  -0.101431   0.197335  -0.096868
     8  C    0.000000   0.000001  -0.000043   0.002714  -0.011965   0.019675
     9  F    0.000000   0.000000   0.000002   0.000010   0.007526  -0.002927
    10  F    0.000000   0.000000   0.000000  -0.000025   0.001916   0.000017
    11  C    0.000000   0.000004   0.000005  -0.000376  -0.007554  -0.002394
    12  F    0.000000   0.000000   0.000000  -0.000001   0.001009  -0.000052
    13  O    0.000002   0.000002  -0.000007  -0.000127   0.005736  -0.018944
    14  C    0.000000  -0.000001  -0.000001   0.000034   0.000342   0.006935
    15  F    0.000000   0.000000  -0.000002   0.000000   0.000170   0.000036
    16  F    0.000000   0.000000   0.000000  -0.000003  -0.000026  -0.000512
    17  F    0.000000   0.000000   0.000000   0.000000   0.000011  -0.000010
    18  C    0.000000   0.000000   0.000000  -0.000001   0.000240   0.000029
    19  F    0.000000   0.000000   0.000000   0.000000  -0.000006   0.000000
    20  F    0.000000   0.000000   0.000000   0.000000  -0.000001   0.000000
    21  F    0.000000   0.000000   0.000000   0.000000   0.000001   0.000000
    22  C    0.000005   0.000161   0.000184   0.002584  -0.011879  -0.000314
    23  O    0.000000   0.000000   0.000001   0.000091   0.000199   0.000000
    24  N   -0.000011  -0.000405   0.003016  -0.099868  -0.004950   0.000108
    25  C    0.000000   0.000001  -0.000043   0.001793   0.000324   0.000003
    26  F    0.000000   0.000000   0.000004   0.000049   0.000005   0.000000
    27  F    0.000000   0.000000   0.000000  -0.000026   0.000007   0.000000
    28  C    0.000000   0.000000   0.000004  -0.000296   0.000027   0.000000
    29  F    0.000000   0.000000   0.000007  -0.000068   0.000002   0.000000
    30  O    0.000000   0.000000   0.000000  -0.000031   0.000019   0.000000
    31  C    0.000000   0.000000   0.000000   0.000001   0.000000   0.000000
    32  F    0.000000   0.000000   0.000000   0.000000   0.000000   0.000000
    33  F    0.000000   0.000000   0.000000   0.000000   0.000000   0.000000
    34  F    0.000000   0.000000   0.000000   0.000000   0.000000   0.000000
    35  C    0.000000   0.000000   0.000000  -0.000003   0.000000   0.000000
    36  F    0.000000   0.000000   0.000000   0.000000   0.000000   0.000000
    37  F    0.000000   0.000000   0.000000   0.000000   0.000000   0.000000
    38  F    0.000000   0.000000   0.000000   0.000000   0.000000   0.000000
    39  C   -0.000023  -0.000674  -0.021246   0.241213  -0.017246   0.000475
    40  O   -0.000326  -0.001334  -0.001094  -0.088144   0.000458  -0.000022
    41  H    0.350543   0.017186   0.002391  -0.000041  -0.000004  -0.000001
    42  H    0.000064  -0.032131   0.381529  -0.033163   0.004004   0.000448
    43  H    0.000006  -0.033436   0.382678  -0.034466  -0.004738   0.011391
               7          8          9         10         11         12
     1  C   -0.000004   0.000000   0.000000   0.000000   0.000000   0.000000
     2  C   -0.000394   0.000001   0.000000   0.000000   0.000004   0.000000
     3  C    0.002825  -0.000043   0.000002   0.000000   0.000005   0.000000
     4  N   -0.101431   0.002714   0.000010  -0.000025  -0.000376  -0.000001
     5  C    0.197335  -0.011965   0.007526   0.001916  -0.007554   0.001009
     6  O   -0.096868   0.019675  -0.002927   0.000017  -0.002394  -0.000052
     7  N    7.601380   0.146074  -0.066150  -0.033602  -0.037109  -0.000114
     8  C    0.146074   4.427552   0.281267   0.254650   0.179497  -0.023811
     9  F   -0.066150   0.281267   9.088996  -0.039176  -0.032417   0.000290
    10  F   -0.033602   0.254650  -0.039176   9.110561  -0.021962  -0.000951
    11  C   -0.037109   0.179497  -0.032417  -0.021962   4.967785   0.231108
    12  F   -0.000114  -0.023811   0.000290  -0.000951   0.231108   9.125004
    13  O   -0.000041  -0.039271   0.000845   0.000618   0.166049  -0.042931
    14  C   -0.000039  -0.004762   0.001463   0.000074  -0.002914   0.000346
    15  F    0.000002  -0.000049  -0.000002   0.000000   0.000921  -0.000002
    16  F   -0.000245   0.002536  -0.004721   0.000000   0.010486  -0.000001
    17  F   -0.000001  -0.000068  -0.000001   0.000000  -0.007849  -0.000004
    18  C    0.002996  -0.039579   0.002412   0.005223   0.225785  -0.008031
    19  F    0.000028   0.010527  -0.000115  -0.000713  -0.043968   0.000300
    20  F   -0.000010   0.001871  -0.000001   0.000001  -0.023551  -0.000808
    21  F   -0.000036   0.000685  -0.000133  -0.004938  -0.030748  -0.000668
    22  C    0.199096  -0.005400   0.003646   0.006444   0.003100   0.000033
    23  O   -0.089501   0.013397  -0.001366  -0.013530   0.000205   0.000001
    24  N   -0.098541   0.002886   0.000008  -0.000104  -0.000068  -0.000007
    25  C    0.001864  -0.000007   0.000001   0.000015   0.000001   0.000000
    26  F   -0.000032   0.000000   0.000000   0.000000   0.000000   0.000000
    27  F   -0.000063   0.000012   0.000000  -0.000001   0.000000   0.000000
    28  C   -0.000183   0.000003   0.000000   0.000000   0.000000   0.000000
    29  F    0.000001   0.000000   0.000000   0.000000   0.000000   0.000000
    30  O   -0.000096   0.000003   0.000000   0.000000   0.000000   0.000000
    31  C   -0.000001   0.000000   0.000000   0.000000   0.000000   0.000000
    32  F    0.000000   0.000000   0.000000   0.000000   0.000000   0.000000
    33  F    0.000000   0.000000   0.000000   0.000000   0.000000   0.000000
    34  F    0.000000   0.000000   0.000000   0.000000   0.000000   0.000000
    35  C    0.000000   0.000000   0.000000   0.000000   0.000000   0.000000
    36  F    0.000000   0.000000   0.000000   0.000000   0.000000   0.000000
    37  F    0.000000   0.000000   0.000000   0.000000   0.000000   0.000000
    38  F    0.000000   0.000000   0.000000   0.000000   0.000000   0.000000
    39  C   -0.003026   0.000358   0.000010   0.000000  -0.000007   0.000003
    40  O    0.000000   0.000001   0.000000   0.000000   0.000000   0.000000
    41  H    0.000000   0.000000   0.000000   0.000000   0.000000   0.000000
    42  H   -0.000068   0.000001   0.000000   0.000000   0.000000   0.000000
    43  H    0.000501   0.000002   0.000000   0.000000  -0.000002   0.000000
              13         14         15         16         17         18
     1  C    0.000002   0.000000   0.000000   0.000000   0.000000   0.000000
     2  C    0.000002  -0.000001   0.000000   0.000000   0.000000   0.000000
     3  C   -0.000007  -0.000001  -0.000002   0.000000   0.000000   0.000000
     4  N   -0.000127   0.000034   0.000000  -0.000003   0.000000  -0.000001
     5  C    0.005736   0.000342   0.000170  -0.000026   0.000011   0.000240
     6  O   -0.018944   0.006935   0.000036  -0.000512  -0.000010   0.000029
     7  N   -0.000041  -0.000039   0.000002  -0.000245  -0.000001   0.002996
     8  C   -0.039271  -0.004762  -0.000049   0.002536  -0.000068  -0.039579
     9  F    0.000845   0.001463  -0.000002  -0.004721  -0.000001   0.002412
    10  F    0.000618   0.000074   0.000000   0.000000   0.000000   0.005223
    11  C    0.166049  -0.002914   0.000921   0.010486  -0.007849   0.225785
    12  F   -0.042931   0.000346  -0.000002  -0.000001  -0.000004  -0.008031
    13  O    8.354176   0.225082  -0.036556  -0.045431  -0.045772  -0.024295
    14  C    0.225082   3.831490   0.331099   0.283802   0.303211  -0.002185
    15  F   -0.036556   0.331099   9.019748  -0.034097  -0.037224  -0.000085
    16  F   -0.045431   0.283802  -0.034097   9.074771  -0.034585  -0.004935
    17  F   -0.045772   0.303211  -0.037224  -0.034585   9.058563   0.016793
    18  C   -0.024295  -0.002185  -0.000085  -0.004935   0.016793   4.189481
    19  F   -0.000930   0.011038  -0.000001  -0.001705  -0.003140   0.253479
    20  F   -0.001341   0.000300   0.000000   0.000011  -0.002506   0.280395
    21  F    0.000535   0.000046   0.000000   0.000000   0.000000   0.298710
    22  C   -0.000003  -0.000005   0.000000   0.000000   0.000000  -0.000052
    23  O    0.000000   0.000000   0.000000   0.000000   0.000000   0.000002
    24  N    0.000000   0.000000   0.000000   0.000000   0.000000   0.000000
    25  C    0.000000   0.000000   0.000000   0.000000   0.000000   0.000000
    26  F    0.000000   0.000000   0.000000   0.000000   0.000000   0.000000
    27  F    0.000000   0.000000   0.000000   0.000000   0.000000   0.000000
    28  C    0.000000   0.000000   0.000000   0.000000   0.000000   0.000000
    29  F    0.000000   0.000000   0.000000   0.000000   0.000000   0.000000
    30  O    0.000000   0.000000   0.000000   0.000000   0.000000   0.000000
    31  C    0.000000   0.000000   0.000000   0.000000   0.000000   0.000000
    32  F    0.000000   0.000000   0.000000   0.000000   0.000000   0.000000
    33  F    0.000000   0.000000   0.000000   0.000000   0.000000   0.000000
    34  F    0.000000   0.000000   0.000000   0.000000   0.000000   0.000000
    35  C    0.000000   0.000000   0.000000   0.000000   0.000000   0.000000
    36  F    0.000000   0.000000   0.000000   0.000000   0.000000   0.000000
    37  F    0.000000   0.000000   0.000000   0.000000   0.000000   0.000000
    38  F    0.000000   0.000000   0.000000   0.000000   0.000000   0.000000
    39  C    0.000003   0.000000   0.000000   0.000000   0.000000   0.000000
    40  O    0.000000   0.000000   0.000000   0.000000   0.000000   0.000000
    41  H    0.000000   0.000000   0.000000   0.000000   0.000000   0.000000
    42  H    0.000000   0.000000   0.000000   0.000000   0.000000   0.000000
    43  H    0.000009   0.000005   0.000000   0.000000   0.000000   0.000000
              19         20         21         22         23         24
     1  C    0.000000   0.000000   0.000000   0.000005   0.000000  -0.000011
     2  C    0.000000   0.000000   0.000000   0.000161   0.000000  -0.000405
     3  C    0.000000   0.000000   0.000000   0.000184   0.000001   0.003016
     4  N    0.000000   0.000000   0.000000   0.002584   0.000091  -0.099868
     5  C   -0.000006  -0.000001   0.000001  -0.011879   0.000199  -0.004950
     6  O    0.000000   0.000000   0.000000  -0.000314   0.000000   0.000108
     7  N    0.000028  -0.000010  -0.000036   0.199096  -0.089501  -0.098541
     8  C    0.010527   0.001871   0.000685  -0.005400   0.013397   0.002886
     9  F   -0.000115  -0.000001  -0.000133   0.003646  -0.001366   0.000008
    10  F   -0.000713   0.000001  -0.004938   0.006444  -0.013530  -0.000104
    11  C   -0.043968  -0.023551  -0.030748   0.003100   0.000205  -0.000068
    12  F    0.000300  -0.000808  -0.000668   0.000033   0.000001  -0.000007
    13  O   -0.000930  -0.001341   0.000535  -0.000003   0.000000   0.000000
    14  C    0.011038   0.000300   0.000046  -0.000005   0.000000   0.000000
    15  F   -0.000001   0.000000   0.000000   0.000000   0.000000   0.000000
    16  F   -0.001705   0.000011   0.000000   0.000000   0.000000   0.000000
    17  F   -0.003140  -0.002506   0.000000   0.000000   0.000000   0.000000
    18  C    0.253479   0.280395   0.298710  -0.000052   0.000002   0.000000
    19  F    9.096712  -0.037186  -0.037788   0.000001   0.000000   0.000000
    20  F   -0.037186   9.081037  -0.040240   0.000000   0.000000   0.000000
    21  F   -0.037788  -0.040240   9.056644   0.000006   0.000000   0.000000
    22  C    0.000001   0.000000   0.000006   4.231178   0.576088   0.207807
    23  O    0.000000   0.000000   0.000000   0.576088   8.047361  -0.089739
    24  N    0.000000   0.000000   0.000000   0.207807  -0.089739   7.568102
    25  C    0.000000   0.000000   0.000000  -0.006962   0.014569   0.178892
    26  F    0.000000   0.000000   0.000000   0.000999   0.000009  -0.041043
    27  F    0.000000   0.000000   0.000000   0.008082  -0.009701  -0.038472
    28  C    0.000000   0.000000   0.000000  -0.002627  -0.002590  -0.066971
    29  F    0.000000   0.000000   0.000000  -0.000330   0.000006  -0.001596
    30  O    0.000000   0.000000   0.000000   0.005007  -0.003568  -0.000102
    31  C    0.000000   0.000000   0.000000   0.000084   0.000499  -0.000221
    32  F    0.000000   0.000000   0.000000   0.000003  -0.000003   0.000001
    33  F    0.000000   0.000000   0.000000   0.000000   0.000000  -0.000002
    34  F    0.000000   0.000000   0.000000  -0.000010  -0.000005   0.000001
    35  C    0.000000   0.000000   0.000000   0.000062  -0.000043   0.003142
    36  F    0.000000   0.000000   0.000000   0.000000   0.000000  -0.000012
    37  F    0.000000   0.000000   0.000000   0.000002   0.000000   0.000051
    38  F    0.000000   0.000000   0.000000   0.000000  -0.000001  -0.000031
    39  C    0.000000   0.000000   0.000000  -0.015312   0.000371   0.206524
    40  O    0.000000   0.000000   0.000000   0.000210  -0.000026  -0.090977
    41  H    0.000000   0.000000   0.000000   0.000000   0.000000   0.000000
    42  H    0.000000   0.000000   0.000000  -0.000063   0.000000   0.000565
    43  H    0.000000   0.000000   0.000000  -0.000085   0.000000  -0.000032
              25         26         27         28         29         30
     1  C    0.000000   0.000000   0.000000   0.000000   0.000000   0.000000
     2  C    0.000001   0.000000   0.000000   0.000000   0.000000   0.000000
     3  C   -0.000043   0.000004   0.000000   0.000004   0.000007   0.000000
     4  N    0.001793   0.000049  -0.000026  -0.000296  -0.000068  -0.000031
     5  C    0.000324   0.000005   0.000007   0.000027   0.000002   0.000019
     6  O    0.000003   0.000000   0.000000   0.000000   0.000000   0.000000
     7  N    0.001864  -0.000032  -0.000063  -0.000183   0.000001  -0.000096
     8  C   -0.000007   0.000000   0.000012   0.000003   0.000000   0.000003
     9  F    0.000001   0.000000   0.000000   0.000000   0.000000   0.000000
    10  F    0.000015   0.000000  -0.000001   0.000000   0.000000   0.000000
    11  C    0.000001   0.000000   0.000000   0.000000   0.000000   0.000000
    12  F    0.000000   0.000000   0.000000   0.000000   0.000000   0.000000
    13  O    0.000000   0.000000   0.000000   0.000000   0.000000   0.000000
    14  C    0.000000   0.000000   0.000000   0.000000   0.000000   0.000000
    15  F    0.000000   0.000000   0.000000   0.000000   0.000000   0.000000
    16  F    0.000000   0.000000   0.000000   0.000000   0.000000   0.000000
    17  F    0.000000   0.000000   0.000000   0.000000   0.000000   0.000000
    18  C    0.000000   0.000000   0.000000   0.000000   0.000000   0.000000
    19  F    0.000000   0.000000   0.000000   0.000000   0.000000   0.000000
    20  F    0.000000   0.000000   0.000000   0.000000   0.000000   0.000000
    21  F    0.000000   0.000000   0.000000   0.000000   0.000000   0.000000
    22  C   -0.006962   0.000999   0.008082  -0.002627  -0.000330   0.005007
    23  O    0.014569   0.000009  -0.009701  -0.002590   0.000006  -0.003568
    24  N    0.178892  -0.041043  -0.038472  -0.066971  -0.001596  -0.000102
    25  C    4.354943   0.275438   0.268155   0.213923  -0.020988  -0.028128
    26  F    0.275438   9.090315  -0.041375  -0.025043  -0.000089   0.000540
    27  F    0.268155  -0.041375   9.096036  -0.035889   0.000302   0.000702
    28  C    0.213923  -0.025043  -0.035889   4.991294   0.217364   0.158576
    29  F   -0.020988  -0.000089   0.000302   0.217364   9.127726  -0.053625
    30  O   -0.028128   0.000540   0.000702   0.158576  -0.053625   8.352349
    31  C    0.001001   0.000003  -0.000065   0.001469  -0.001132   0.233945
    32  F   -0.000175   0.000000   0.000001  -0.008835  -0.000015  -0.047566
    33  F    0.000191   0.000000   0.000000   0.012691  -0.001395  -0.046528
    34  F   -0.000032   0.000000   0.000000   0.000522  -0.000021  -0.039381
    35  C   -0.029774  -0.001486   0.007923   0.207568  -0.014677  -0.027084
    36  F    0.001304  -0.000002   0.000000  -0.031559  -0.000065  -0.001498
    37  F    0.006577  -0.002304  -0.000935  -0.029165  -0.000255   0.000546
    38  F   -0.000216  -0.000134  -0.000899  -0.032143   0.000309   0.000282
    39  C   -0.011677   0.004659   0.000830  -0.000374   0.009012   0.000292
    40  O    0.015811  -0.007742   0.000011  -0.002411  -0.004663  -0.000035
    41  H    0.000000   0.000000   0.000000   0.000000   0.000000   0.000000
    42  H    0.000008   0.000002   0.000000   0.000002  -0.000007   0.000000
    43  H    0.000002   0.000000   0.000000   0.000000   0.000000   0.000000
              31         32         33         34         35         36
     1  C    0.000000   0.000000   0.000000   0.000000   0.000000   0.000000
     2  C    0.000000   0.000000   0.000000   0.000000   0.000000   0.000000
     3  C    0.000000   0.000000   0.000000   0.000000   0.000000   0.000000
     4  N    0.000001   0.000000   0.000000   0.000000  -0.000003   0.000000
     5  C    0.000000   0.000000   0.000000   0.000000   0.000000   0.000000
     6  O    0.000000   0.000000   0.000000   0.000000   0.000000   0.000000
     7  N   -0.000001   0.000000   0.000000   0.000000   0.000000   0.000000
     8  C    0.000000   0.000000   0.000000   0.000000   0.000000   0.000000
     9  F    0.000000   0.000000   0.000000   0.000000   0.000000   0.000000
    10  F    0.000000   0.000000   0.000000   0.000000   0.000000   0.000000
    11  C    0.000000   0.000000   0.000000   0.000000   0.000000   0.000000
    12  F    0.000000   0.000000   0.000000   0.000000   0.000000   0.000000
    13  O    0.000000   0.000000   0.000000   0.000000   0.000000   0.000000
    14  C    0.000000   0.000000   0.000000   0.000000   0.000000   0.000000
    15  F    0.000000   0.000000   0.000000   0.000000   0.000000   0.000000
    16  F    0.000000   0.000000   0.000000   0.000000   0.000000   0.000000
    17  F    0.000000   0.000000   0.000000   0.000000   0.000000   0.000000
    18  C    0.000000   0.000000   0.000000   0.000000   0.000000   0.000000
    19  F    0.000000   0.000000   0.000000   0.000000   0.000000   0.000000
    20  F    0.000000   0.000000   0.000000   0.000000   0.000000   0.000000
    21  F    0.000000   0.000000   0.000000   0.000000   0.000000   0.000000
    22  C    0.000084   0.000003   0.000000  -0.000010   0.000062   0.000000
    23  O    0.000499  -0.000003   0.000000  -0.000005  -0.000043   0.000000
    24  N   -0.000221   0.000001  -0.000002   0.000001   0.003142  -0.000012
    25  C    0.001001  -0.000175   0.000191  -0.000032  -0.029774   0.001304
    26  F    0.000003   0.000000   0.000000   0.000000  -0.001486  -0.000002
    27  F   -0.000065   0.000001   0.000000   0.000000   0.007923   0.000000
    28  C    0.001469  -0.008835   0.012691   0.000522   0.207568  -0.031559
    29  F   -0.001132  -0.000015  -0.001395  -0.000021  -0.014677  -0.000065
    30  O    0.233945  -0.047566  -0.046528  -0.039381  -0.027084  -0.001498
    31  C    3.824223   0.302890   0.295107   0.339507  -0.003522   0.012103
    32  F    0.302890   9.055647  -0.033912  -0.037285   0.017718  -0.006648
    33  F    0.295107  -0.033912   9.059638  -0.036795  -0.004269  -0.001977
    34  F    0.339507  -0.037285  -0.036795   9.011864  -0.000026  -0.000004
    35  C   -0.003522   0.017718  -0.004269  -0.000026   4.194031   0.281214
    36  F    0.012103  -0.006648  -0.001977  -0.000004   0.281214   9.084577
    37  F    0.000059   0.000000   0.000000   0.000000   0.287536  -0.039885
    38  F   -0.000403  -0.000480   0.000014   0.000000   0.268041  -0.038823
    39  C   -0.000012   0.000000   0.000001   0.000000   0.000238   0.000000
    40  O   -0.000005   0.000000   0.000000   0.000000  -0.000017   0.000000
    41  H    0.000000   0.000000   0.000000   0.000000   0.000000   0.000000
    42  H    0.000000   0.000000   0.000000   0.000000   0.000000   0.000000
    43  H    0.000000   0.000000   0.000000   0.000000   0.000000   0.000000
              37         38         39         40         41         42
     1  C    0.000000   0.000000  -0.000023  -0.000326   0.350543   0.000064
     2  C    0.000000   0.000000  -0.000674  -0.001334   0.017186  -0.032131
     3  C    0.000000   0.000000  -0.021246  -0.001094   0.002391   0.381529
     4  N    0.000000   0.000000   0.241213  -0.088144  -0.000041  -0.033163
     5  C    0.000000   0.000000  -0.017246   0.000458  -0.000004   0.004004
     6  O    0.000000   0.000000   0.000475  -0.000022  -0.000001   0.000448
     7  N    0.000000   0.000000  -0.003026   0.000000   0.000000  -0.000068
     8  C    0.000000   0.000000   0.000358   0.000001   0.000000   0.000001
     9  F    0.000000   0.000000   0.000010   0.000000   0.000000   0.000000
    10  F    0.000000   0.000000   0.000000   0.000000   0.000000   0.000000
    11  C    0.000000   0.000000  -0.000007   0.000000   0.000000   0.000000
    12  F    0.000000   0.000000   0.000003   0.000000   0.000000   0.000000
    13  O    0.000000   0.000000   0.000003   0.000000   0.000000   0.000000
    14  C    0.000000   0.000000   0.000000   0.000000   0.000000   0.000000
    15  F    0.000000   0.000000   0.000000   0.000000   0.000000   0.000000
    16  F    0.000000   0.000000   0.000000   0.000000   0.000000   0.000000
    17  F    0.000000   0.000000   0.000000   0.000000   0.000000   0.000000
    18  C    0.000000   0.000000   0.000000   0.000000   0.000000   0.000000
    19  F    0.000000   0.000000   0.000000   0.000000   0.000000   0.000000
    20  F    0.000000   0.000000   0.000000   0.000000   0.000000   0.000000
    21  F    0.000000   0.000000   0.000000   0.000000   0.000000   0.000000
    22  C    0.000002   0.000000  -0.015312   0.000210   0.000000  -0.000063
    23  O    0.000000  -0.000001   0.000371  -0.000026   0.000000   0.000000
    24  N    0.000051  -0.000031   0.206524  -0.090977   0.000000   0.000565
    25  C    0.006577  -0.000216  -0.011677   0.015811   0.000000   0.000008
    26  F   -0.002304  -0.000134   0.004659  -0.007742   0.000000   0.000002
    27  F   -0.000935  -0.000899   0.000830   0.000011   0.000000   0.000000
    28  C   -0.029165  -0.032143  -0.000374  -0.002411   0.000000   0.000002
    29  F   -0.000255   0.000309   0.009012  -0.004663   0.000000  -0.000007
    30  O    0.000546   0.000282   0.000292  -0.000035   0.000000   0.000000
    31  C    0.000059  -0.000403  -0.000012  -0.000005   0.000000   0.000000
    32  F    0.000000  -0.000480   0.000000   0.000000   0.000000   0.000000
    33  F    0.000000   0.000014   0.000001   0.000000   0.000000   0.000000
    34  F    0.000000   0.000000   0.000000   0.000000   0.000000   0.000000
    35  C    0.287536   0.268041   0.000238  -0.000017   0.000000   0.000000
    36  F   -0.039885  -0.038823   0.000000   0.000000   0.000000   0.000000
    37  F    9.058468  -0.037982  -0.000004   0.000000   0.000000   0.000000
    38  F   -0.037982   9.087057   0.000000   0.000000   0.000000   0.000000
    39  C   -0.000004   0.000000   4.186370   0.590724  -0.000004  -0.003602
    40  O    0.000000   0.000000   0.590724   8.060246  -0.000001   0.011767
    41  H    0.000000   0.000000  -0.000004  -0.000001   0.443409  -0.000017
    42  H    0.000000   0.000000  -0.003602   0.011767  -0.000017   0.499708
    43  H    0.000000   0.000000   0.004232   0.000490  -0.000017  -0.024583
              43
     1  C    0.000006
     2  C   -0.033436
     3  C    0.382678
     4  N   -0.034466
     5  C   -0.004738
     6  O    0.011391
     7  N    0.000501
     8  C    0.000002
     9  F    0.000000
    10  F    0.000000
    11  C   -0.000002
    12  F    0.000000
    13  O    0.000009
    14  C    0.000005
    15  F    0.000000
    16  F    0.000000
    17  F    0.000000
    18  C    0.000000
    19  F    0.000000
    20  F    0.000000
    21  F    0.000000
    22  C   -0.000085
    23  O    0.000000
    24  N   -0.000032
    25  C    0.000002
    26  F    0.000000
    27  F    0.000000
    28  C    0.000000
    29  F    0.000000
    30  O    0.000000
    31  C    0.000000
    32  F    0.000000
    33  F    0.000000
    34  F    0.000000
    35  C    0.000000
    36  F    0.000000
    37  F    0.000000
    38  F    0.000000
    39  C    0.004232
    40  O    0.000490
    41  H   -0.000017
    42  H   -0.024583
    43  H    0.502367
 Mulliken charges:
               1
     1  C   -0.405375
     2  C    0.276970
     3  C   -0.181742
     4  N   -0.575928
     5  C    0.823005
     6  O   -0.482206
     7  N   -0.624549
     8  C    0.781240
     9  F   -0.239467
    10  F   -0.264516
    11  C    0.425975
    12  F   -0.280712
    13  O   -0.497410
    14  C    1.014639
    15  F   -0.243958
    16  F   -0.245346
    17  F   -0.247418
    18  C    0.803617
    19  F   -0.246532
    20  F   -0.257971
    21  F   -0.242076
    22  C    0.798261
    23  O   -0.442726
    24  N   -0.637949
    25  C    0.763185
    26  F   -0.252773
    27  F   -0.254637
    28  C    0.434644
    29  F   -0.255803
    30  O   -0.504620
    31  C    0.994470
    32  F   -0.241342
    33  F   -0.242764
    34  F   -0.238335
    35  C    0.813429
    36  F   -0.258724
    37  F   -0.242707
    38  F   -0.244593
    39  C    0.827892
    40  O   -0.482918
    41  H    0.186555
    42  H    0.195536
    43  H    0.195677
 Sum of Mulliken charges =   0.00000
 Mulliken charges with hydrogens summed into heavy atoms:
               1
     1  C   -0.218820
     2  C    0.276970
     3  C    0.209470
     4  N   -0.575928
     5  C    0.823005
     6  O   -0.482206
     7  N   -0.624549
     8  C    0.781240
     9  F   -0.239467
    10  F   -0.264516
    11  C    0.425975
    12  F   -0.280712
    13  O   -0.497410
    14  C    1.014639
    15  F   -0.243958
    16  F   -0.245346
    17  F   -0.247418
    18  C    0.803617
    19  F   -0.246532
    20  F   -0.257971
    21  F   -0.242076
    22  C    0.798261
    23  O   -0.442726
    24  N   -0.637949
    25  C    0.763185
    26  F   -0.252773
    27  F   -0.254637
    28  C    0.434644
    29  F   -0.255803
    30  O   -0.504620
    31  C    0.994470
    32  F   -0.241342
    33  F   -0.242764
    34  F   -0.238335
    35  C    0.813429
    36  F   -0.258724
    37  F   -0.242707
    38  F   -0.244593
    39  C    0.827892
    40  O   -0.482918
 Electronic spatial extent (au):  <R**2>=          20069.2989
 Charge=              0.0000 electrons
 Dipole moment (field-independent basis, Debye):
    X=             -0.6979    Y=              2.3777    Z=             -0.5459  Tot=              2.5375
 Quadrupole moment (field-independent basis, Debye-Ang):
   XX=           -219.6711   YY=           -208.2298   ZZ=           -212.8617
   XY=             -0.8514   XZ=              8.1816   YZ=              4.1805
 Traceless Quadrupole moment (field-independent basis, Debye-Ang):
   XX=             -6.0836   YY=              5.3577   ZZ=              0.7258
   XY=             -0.8514   XZ=              8.1816   YZ=              4.1805
 Octapole moment (field-independent basis, Debye-Ang**2):
  XXX=            -38.5017  YYY=            221.4008  ZZZ=            -40.0541  XYY=            -20.7209
  XXY=             39.2019  XXZ=             -3.1257  XZZ=            -18.5788  YZZ=             51.7729
  YYZ=              8.5093  XYZ=             15.1406
 Hexadecapole moment (field-independent basis, Debye-Ang**3):
 XXXX=          -7654.9142 YYYY=          -4430.6461 ZZZZ=          -8795.1603 XXXY=           1040.3487
 XXXZ=           3092.7519 YYYX=           1046.2146 YYYZ=           -643.7249 ZZZX=           3128.9315
 ZZZY=           -799.7608 XXYY=          -2136.5639 XXZZ=          -2760.5540 YYZZ=          -2224.9633
 XXYZ=           -271.2622 YYXZ=           1057.3829 ZZXY=            319.1375
 N-N= 5.939773140360D+03 E-N=-1.866586077248D+04  KE= 2.850958630395D+03
 No NMR shielding tensors so no spin-rotation constants.
 Leave Link  601 at Tue Mar  5 17:56:31 2024, MaxMem=  5368709120 cpu:         4.3
 (Enter /home/k0335/k033513/app/g09/l9999.exe)
 1\1\GINC-C18U03N3\SP\RCAM-B3LYP\6-31G(d,p)\C14H3F18N3O5\K033513\05-Mar
 -2024\0\\#p CAM-B3LYP/6-31G(d,p) SCRF=(PCM,Solvent=Generic,Read) NoSym
 m out=wfn\\Title A201888830_0\\0,1\C,0,-0.300917,5.037231,0.269622\C,0
 ,-0.518143,4.0849,-0.429385\C,0,-0.783981,2.915448,-1.28321\N,0,-0.224
 243,1.716277,-0.671274\C,0,-1.005235,1.004179,0.21336\O,0,-2.210384,1.
 212768,0.322829\N,0,-0.375898,0.000349,0.894339\C,0,-1.141808,-0.74615
 4,1.8906\F,0,-2.116312,-1.454482,1.27443\F,0,-0.30401,-1.683097,2.4334
 08\C,0,-1.678291,0.080869,3.100405\F,0,-0.569245,0.700973,3.65257\O,0,
 -2.541286,1.187447,2.835647\C,0,-3.890209,0.843778,2.620151\F,0,-4.525
 381,1.885221,2.054661\F,0,-3.995851,-0.228118,1.824909\F,0,-4.473724,0
 .57876,3.800875\C,0,-2.193998,-0.922956,4.146124\F,0,-3.212754,-1.6760
 04,3.67998\F,0,-2.652037,-0.272135,5.245371\F,0,-1.237027,-1.770169,4.
 58368\C,0,0.612407,-0.673385,0.218616\O,0,0.710046,-1.896917,0.220208\
 N,0,1.466575,0.121307,-0.510908\C,0,2.65766,-0.491323,-1.083637\F,0,3.
 63626,0.456593,-1.14922\F,0,3.152879,-1.392463,-0.186227\C,0,2.46934,-
 1.16728,-2.467859\F,0,2.174524,-0.211171,-3.397434\O,0,1.321046,-2.021
 059,-2.437149\C,0,1.221553,-2.8593,-3.55772\F,0,2.090336,-3.874578,-3.
 434371\F,0,1.458203,-2.179338,-4.689998\F,0,-0.027048,-3.358565,-3.606
 684\C,0,3.825675,-1.809516,-2.792793\F,0,3.849127,-2.308942,-4.052471\
 F,0,4.852812,-0.935631,-2.716858\F,0,4.108411,-2.838997,-1.963719\C,0,
 1.025255,1.292453,-1.073173\O,0,1.672445,1.895774,-1.92546\H,0,-0.1089
 77,5.885548,0.886411\H,0,-0.353515,3.074602,-2.277819\H,0,-1.864275,2.
 797104,-1.422127\\Version=ES64L-G09RevD.01\HF=-2871.8884\RMSD=9.185e-0
 9\Dipole=-0.274588,0.9354785,-0.2147837\Quadrupole=-4.5229751,3.983333
 6,0.5396415,-0.6329617,6.0828194,3.1081265\PG=C01 [X(C14H3F18N3O5)]\\@

 Writing a WFN file to "A201888830/A201888830_0.wfn"


 I CLAIM NOT TO HAVE CONTROLLED EVENTS,
 BUT CONFESS PLAINLY THAT EVENTS HAVE CONTROLLED ME.

                                         A. LINCOLN
 Job cpu time:       0 days  0 hours 23 minutes  0.2 seconds.
 File lengths (MBytes):  RWF=    419 Int=      0 D2E=      0 Chk=     15 Scr=      1
 Normal termination of Gaussian 09 at Tue Mar  5 17:56:34 2024.
