 Entering Gaussian System, Link 0=g09
 Initial command:
 /home/k0335/k033513/app/g09/l1.exe "/home/k0335/k033513/app/g09/scratch/Gau-1676425.inp" -scrdir="/home/k0335/k033513/app/g09/scratch/"
 Default is to use a total of  36 processors:
                               36 via shared-memory
                                1 via Linda
 Entering Link 1 = /home/k0335/k033513/app/g09/l1.exe PID=   1676426.
  
 Copyright (c) 1988,1990,1992,1993,1995,1998,2003,2009,2013,
            Gaussian, Inc.  All Rights Reserved.
  
 This is part of the Gaussian(R) 09 program.  It is based on
 the Gaussian(R) 03 system (copyright 2003, Gaussian, Inc.),
 the Gaussian(R) 98 system (copyright 1998, Gaussian, Inc.),
 the Gaussian(R) 94 system (copyright 1995, Gaussian, Inc.),
 the Gaussian 92(TM) system (copyright 1992, Gaussian, Inc.),
 the Gaussian 90(TM) system (copyright 1990, Gaussian, Inc.),
 the Gaussian 88(TM) system (copyright 1988, Gaussian, Inc.),
 the Gaussian 86(TM) system (copyright 1986, Carnegie Mellon
 University), and the Gaussian 82(TM) system (copyright 1983,
 Carnegie Mellon University). Gaussian is a federally registered
 trademark of Gaussian, Inc.
  
 This software contains proprietary and confidential information,
 including trade secrets, belonging to Gaussian, Inc.
  
 This software is provided under written license and may be
 used, copied, transmitted, or stored only in accord with that
 written license.
  
 The following legend is applicable only to US Government
 contracts under FAR:
  
                    RESTRICTED RIGHTS LEGEND
  
 Use, reproduction and disclosure by the US Government is
 subject to restrictions as set forth in subparagraphs (a)
 and (c) of the Commercial Computer Software - Restricted
 Rights clause in FAR 52.227-19.
  
 Gaussian, Inc.
 340 Quinnipiac St., Bldg. 40, Wallingford CT 06492
  
  
 ---------------------------------------------------------------
 Warning -- This program may not be used in any manner that
 competes with the business of Gaussian, Inc. or will provide
 assistance to any competitor of Gaussian, Inc.  The licensee
 of this program is prohibited from giving any competitor of
 Gaussian, Inc. access to this program.  By using this program,
 the user acknowledges that Gaussian, Inc. is engaged in the
 business of creating and licensing software in the field of
 computational chemistry and represents and warrants to the
 licensee that it is not a competitor of Gaussian, Inc. and that
 it will not use this program in any manner prohibited above.
 ---------------------------------------------------------------
  

 Cite this work as:
 Gaussian 09, Revision D.01,
 M. J. Frisch, G. W. Trucks, H. B. Schlegel, G. E. Scuseria, 
 M. A. Robb, J. R. Cheeseman, G. Scalmani, V. Barone, B. Mennucci, 
 G. A. Petersson, H. Nakatsuji, M. Caricato, X. Li, H. P. Hratchian, 
 A. F. Izmaylov, J. Bloino, G. Zheng, J. L. Sonnenberg, M. Hada, 
 M. Ehara, K. Toyota, R. Fukuda, J. Hasegawa, M. Ishida, T. Nakajima, 
 Y. Honda, O. Kitao, H. Nakai, T. Vreven, J. A. Montgomery, Jr., 
 J. E. Peralta, F. Ogliaro, M. Bearpark, J. J. Heyd, E. Brothers, 
 K. N. Kudin, V. N. Staroverov, T. Keith, R. Kobayashi, J. Normand, 
 K. Raghavachari, A. Rendell, J. C. Burant, S. S. Iyengar, J. Tomasi, 
 M. Cossi, N. Rega, J. M. Millam, M. Klene, J. E. Knox, J. B. Cross, 
 V. Bakken, C. Adamo, J. Jaramillo, R. Gomperts, R. E. Stratmann, 
 O. Yazyev, A. J. Austin, R. Cammi, C. Pomelli, J. W. Ochterski, 
 R. L. Martin, K. Morokuma, V. G. Zakrzewski, G. A. Voth, 
 P. Salvador, J. J. Dannenberg, S. Dapprich, A. D. Daniels, 
 O. Farkas, J. B. Foresman, J. V. Ortiz, J. Cioslowski, 
 and D. J. Fox, Gaussian, Inc., Wallingford CT, 2013.
 
 ******************************************
 Gaussian 09:  ES64L-G09RevD.01 24-Apr-2013
                 3-Feb-2025 
 ******************************************
 %nprocshared=24
 Will use up to   24 processors via shared memory.
 %mem=40GB
 %rwf=cytop/EHOPA0/EHOPA0_neu.rwf
 %nosave
 %chk=cytop/EHOPA0/EHOPA0_neu.chk
 ----------------------------------------------------------------------
 #p CAM-B3LYP/6-31G(d,p) SCRF=(PCM,Solvent=Generic,Read) NoSymm out=wfn
 ----------------------------------------------------------------------
 1/38=1,40=2/1;
 2/12=2,15=1,17=6,18=5,40=1/2;
 3/5=1,6=6,7=101,11=2,16=1,25=1,30=1,70=2203,72=-2,74=-40/1,2,3;
 4//1;
 5/5=2,38=5/2;
 6/7=2,8=2,9=2,10=2,28=1/1;
 99/5=1,6=100,9=1/99;
 Leave Link    1 at Mon Feb  3 21:37:00 2025, MaxMem=  5368709120 cpu:         1.5
 (Enter /home/k0335/k033513/app/g09/l101.exe)
 ----------------
 Title EHOPA0_neu
 ----------------
 Symbolic Z-matrix:
 Charge =  0 Multiplicity = 1
 C                    -7.27809  -0.8811   -1.96057 
 C                    -6.58096  -1.27094  -0.66582 
 C                    -5.44243  -0.32353  -0.27486 
 C                    -4.26493  -0.36232  -1.25538 
 C                    -3.0468    0.49788  -0.84558 
 C                    -3.35826   2.00093  -0.69504 
 C                    -3.93178   2.63933  -1.95245 
 C                    -2.36648  -0.01036   0.44243 
 O                    -2.10325  -1.41382   0.43146 
 C                    -1.03571  -1.83555  -0.41204 
 C                     0.34198  -1.42845   0.10219 
 C                     0.55598  -1.82896   1.55986 
 N                     1.89828  -1.49689   2.00279 
 C                     2.24796  -0.21043   2.38336 
 C                     3.73008  -0.01784   2.74787 
 F                     3.97712   1.17637   3.35397 
 F                     4.10365  -0.96755   3.66669 
 C                     4.64609  -0.17014   1.51396 
 F                     4.4424   -1.41207   0.99554 
 O                     6.02641  -0.14168   1.94071 
 C                     6.59196   1.06861   1.45243 
 F                     7.50535   0.70501   0.52614 
 F                     7.25951   1.68518   2.4442 
 C                     5.48758   1.91062   0.84369 
 F                     5.8854    2.72735  -0.14448 
 F                     4.94627   2.70526   1.80625 
 C                     4.47495   0.88438   0.43109 
 C                     4.63673   0.34858  -0.98346 
 F                     4.3969    1.38343  -1.85002 
 C                     5.96464  -0.33163  -1.31131 
 O                     6.81079   0.44516  -2.01971 
 O                     6.31486  -1.44641  -0.95931 
 F                     3.60122  -0.52456  -1.21037 
 F                     3.22532   1.43672   0.48106 
 O                     1.4312    0.70879   2.4043 
 H                    -8.14338  -1.53014  -2.13085 
 H                    -6.61273  -0.98531  -2.82299 
 H                    -7.63345   0.15368  -1.91949 
 H                    -7.32334  -1.27176   0.14165 
 H                    -6.20277  -2.29661  -0.74895 
 H                    -5.83702   0.69537  -0.19621 
 H                    -5.09899  -0.61096   0.72487 
 H                    -3.94202  -1.40299  -1.38305 
 H                    -4.60187  -0.03837  -2.24646 
 H                    -2.32071   0.4003   -1.66339 
 H                    -4.04659   2.16953   0.14149 
 H                    -2.43005   2.52921  -0.44054 
 H                    -4.92999   2.25393  -2.18081 
 H                    -4.02059   3.72205  -1.81547 
 H                    -3.28284   2.46007  -2.8154 
 H                    -1.44548   0.54763   0.64202 
 H                    -3.02016   0.17459   1.30199 
 H                    -1.08697  -2.92953  -0.45156 
 H                    -1.18681  -1.48259  -1.43689 
 H                     1.11059  -1.8916   -0.52899 
 H                     0.47586  -0.34595  -0.00357 
 H                    -0.1608   -1.32456   2.21678 
 H                     0.43467  -2.91019   1.68457 
 H                     2.58947  -2.24126   2.03952 
 H                     7.62203  -0.09393  -2.1525 
 
 NAtoms=     60 NQM=       60 NQMF=       0 NMMI=      0 NMMIF=      0
                NMic=       0 NMicF=      0.
                    Isotopes and Nuclear Properties:
 (Nuclear quadrupole moments (NQMom) in fm**2, nuclear magnetic moments (NMagM)
  in nuclear magnetons)

  Atom         1           2           3           4           5           6           7           8           9          10
 IAtWgt=          12          12          12          12          12          12          12          12          16          12
 AtmWgt=  12.0000000  12.0000000  12.0000000  12.0000000  12.0000000  12.0000000  12.0000000  12.0000000  15.9949146  12.0000000
 NucSpn=           0           0           0           0           0           0           0           0           0           0
 AtZEff=   0.0000000   0.0000000   0.0000000   0.0000000   0.0000000   0.0000000   0.0000000   0.0000000   0.0000000   0.0000000
 NQMom=    0.0000000   0.0000000   0.0000000   0.0000000   0.0000000   0.0000000   0.0000000   0.0000000   0.0000000   0.0000000
 NMagM=    0.0000000   0.0000000   0.0000000   0.0000000   0.0000000   0.0000000   0.0000000   0.0000000   0.0000000   0.0000000
 AtZNuc=   6.0000000   6.0000000   6.0000000   6.0000000   6.0000000   6.0000000   6.0000000   6.0000000   8.0000000   6.0000000

  Atom        11          12          13          14          15          16          17          18          19          20
 IAtWgt=          12          12          14          12          12          19          19          12          19          16
 AtmWgt=  12.0000000  12.0000000  14.0030740  12.0000000  12.0000000  18.9984033  18.9984033  12.0000000  18.9984033  15.9949146
 NucSpn=           0           0           2           0           0           1           1           0           1           0
 AtZEff=   0.0000000   0.0000000   0.0000000   0.0000000   0.0000000   0.0000000   0.0000000   0.0000000   0.0000000   0.0000000
 NQMom=    0.0000000   0.0000000   2.0440000   0.0000000   0.0000000   0.0000000   0.0000000   0.0000000   0.0000000   0.0000000
 NMagM=    0.0000000   0.0000000   0.4037610   0.0000000   0.0000000   2.6288670   2.6288670   0.0000000   2.6288670   0.0000000
 AtZNuc=   6.0000000   6.0000000   7.0000000   6.0000000   6.0000000   9.0000000   9.0000000   6.0000000   9.0000000   8.0000000

  Atom        21          22          23          24          25          26          27          28          29          30
 IAtWgt=          12          19          19          12          19          19          12          12          19          12
 AtmWgt=  12.0000000  18.9984033  18.9984033  12.0000000  18.9984033  18.9984033  12.0000000  12.0000000  18.9984033  12.0000000
 NucSpn=           0           1           1           0           1           1           0           0           1           0
 AtZEff=   0.0000000   0.0000000   0.0000000   0.0000000   0.0000000   0.0000000   0.0000000   0.0000000   0.0000000   0.0000000
 NQMom=    0.0000000   0.0000000   0.0000000   0.0000000   0.0000000   0.0000000   0.0000000   0.0000000   0.0000000   0.0000000
 NMagM=    0.0000000   2.6288670   2.6288670   0.0000000   2.6288670   2.6288670   0.0000000   0.0000000   2.6288670   0.0000000
 AtZNuc=   6.0000000   9.0000000   9.0000000   6.0000000   9.0000000   9.0000000   6.0000000   6.0000000   9.0000000   6.0000000

  Atom        31          32          33          34          35          36          37          38          39          40
 IAtWgt=          16          16          19          19          16           1           1           1           1           1
 AtmWgt=  15.9949146  15.9949146  18.9984033  18.9984033  15.9949146   1.0078250   1.0078250   1.0078250   1.0078250   1.0078250
 NucSpn=           0           0           1           1           0           1           1           1           1           1
 AtZEff=   0.0000000   0.0000000   0.0000000   0.0000000   0.0000000   0.0000000   0.0000000   0.0000000   0.0000000   0.0000000
 NQMom=    0.0000000   0.0000000   0.0000000   0.0000000   0.0000000   0.0000000   0.0000000   0.0000000   0.0000000   0.0000000
 NMagM=    0.0000000   0.0000000   2.6288670   2.6288670   0.0000000   2.7928460   2.7928460   2.7928460   2.7928460   2.7928460
 AtZNuc=   8.0000000   8.0000000   9.0000000   9.0000000   8.0000000   1.0000000   1.0000000   1.0000000   1.0000000   1.0000000

  Atom        41          42          43          44          45          46          47          48          49          50
 IAtWgt=           1           1           1           1           1           1           1           1           1           1
 AtmWgt=   1.0078250   1.0078250   1.0078250   1.0078250   1.0078250   1.0078250   1.0078250   1.0078250   1.0078250   1.0078250
 NucSpn=           1           1           1           1           1           1           1           1           1           1
 AtZEff=   0.0000000   0.0000000   0.0000000   0.0000000   0.0000000   0.0000000   0.0000000   0.0000000   0.0000000   0.0000000
 NQMom=    0.0000000   0.0000000   0.0000000   0.0000000   0.0000000   0.0000000   0.0000000   0.0000000   0.0000000   0.0000000
 NMagM=    2.7928460   2.7928460   2.7928460   2.7928460   2.7928460   2.7928460   2.7928460   2.7928460   2.7928460   2.7928460
 AtZNuc=   1.0000000   1.0000000   1.0000000   1.0000000   1.0000000   1.0000000   1.0000000   1.0000000   1.0000000   1.0000000

  Atom        51          52          53          54          55          56          57          58          59          60
 IAtWgt=           1           1           1           1           1           1           1           1           1           1
 AtmWgt=   1.0078250   1.0078250   1.0078250   1.0078250   1.0078250   1.0078250   1.0078250   1.0078250   1.0078250   1.0078250
 NucSpn=           1           1           1           1           1           1           1           1           1           1
 AtZEff=   0.0000000   0.0000000   0.0000000   0.0000000   0.0000000   0.0000000   0.0000000   0.0000000   0.0000000   0.0000000
 NQMom=    0.0000000   0.0000000   0.0000000   0.0000000   0.0000000   0.0000000   0.0000000   0.0000000   0.0000000   0.0000000
 NMagM=    2.7928460   2.7928460   2.7928460   2.7928460   2.7928460   2.7928460   2.7928460   2.7928460   2.7928460   2.7928460
 AtZNuc=   1.0000000   1.0000000   1.0000000   1.0000000   1.0000000   1.0000000   1.0000000   1.0000000   1.0000000   1.0000000
 Leave Link  101 at Mon Feb  3 21:37:00 2025, MaxMem=  5368709120 cpu:         0.9
 (Enter /home/k0335/k033513/app/g09/l202.exe)
 Symmetry turned off by external request.
 Stoichiometry    C19H25F10NO5
 Framework group  C1[X(C19H25F10NO5)]
 Deg. of freedom   174
 Full point group                 C1      NOp   1
                          Input orientation:                          
 ---------------------------------------------------------------------
 Center     Atomic      Atomic             Coordinates (Angstroms)
 Number     Number       Type             X           Y           Z
 ---------------------------------------------------------------------
      1          6           0       -7.278090   -0.881099   -1.960567
      2          6           0       -6.580964   -1.270937   -0.665819
      3          6           0       -5.442429   -0.323526   -0.274855
      4          6           0       -4.264929   -0.362321   -1.255377
      5          6           0       -3.046805    0.497883   -0.845579
      6          6           0       -3.358256    2.000928   -0.695041
      7          6           0       -3.931782    2.639326   -1.952449
      8          6           0       -2.366482   -0.010358    0.442434
      9          8           0       -2.103250   -1.413816    0.431460
     10          6           0       -1.035711   -1.835548   -0.412038
     11          6           0        0.341980   -1.428447    0.102192
     12          6           0        0.555978   -1.828955    1.559860
     13          7           0        1.898279   -1.496887    2.002792
     14          6           0        2.247958   -0.210433    2.383355
     15          6           0        3.730080   -0.017843    2.747873
     16          9           0        3.977121    1.176367    3.353972
     17          9           0        4.103653   -0.967548    3.666688
     18          6           0        4.646086   -0.170138    1.513963
     19          9           0        4.442397   -1.412065    0.995535
     20          8           0        6.026408   -0.141679    1.940708
     21          6           0        6.591964    1.068609    1.452425
     22          9           0        7.505355    0.705005    0.526138
     23          9           0        7.259511    1.685180    2.444204
     24          6           0        5.487577    1.910618    0.843694
     25          9           0        5.885395    2.727350   -0.144478
     26          9           0        4.946275    2.705255    1.806251
     27          6           0        4.474954    0.884383    0.431091
     28          6           0        4.636726    0.348581   -0.983458
     29          9           0        4.396898    1.383433   -1.850015
     30          6           0        5.964635   -0.331626   -1.311310
     31          8           0        6.810787    0.445156   -2.019706
     32          8           0        6.314864   -1.446410   -0.959305
     33          9           0        3.601224   -0.524560   -1.210374
     34          9           0        3.225316    1.436715    0.481061
     35          8           0        1.431202    0.708792    2.404301
     36          1           0       -8.143375   -1.530144   -2.130855
     37          1           0       -6.612734   -0.985305   -2.822985
     38          1           0       -7.633447    0.153682   -1.919487
     39          1           0       -7.323340   -1.271757    0.141645
     40          1           0       -6.202775   -2.296605   -0.748947
     41          1           0       -5.837017    0.695365   -0.196211
     42          1           0       -5.098990   -0.610964    0.724871
     43          1           0       -3.942022   -1.402991   -1.383052
     44          1           0       -4.601871   -0.038367   -2.246456
     45          1           0       -2.320706    0.400303   -1.663388
     46          1           0       -4.046587    2.169531    0.141494
     47          1           0       -2.430048    2.529207   -0.440542
     48          1           0       -4.929987    2.253925   -2.180807
     49          1           0       -4.020590    3.722049   -1.815465
     50          1           0       -3.282836    2.460070   -2.815398
     51          1           0       -1.445483    0.547633    0.642021
     52          1           0       -3.020159    0.174591    1.301987
     53          1           0       -1.086969   -2.929533   -0.451559
     54          1           0       -1.186809   -1.482586   -1.436891
     55          1           0        1.110593   -1.891602   -0.528987
     56          1           0        0.475861   -0.345946   -0.003565
     57          1           0       -0.160801   -1.324562    2.216784
     58          1           0        0.434674   -2.910190    1.684565
     59          1           0        2.589469   -2.241264    2.039517
     60          1           0        7.622025   -0.093926   -2.152501
 ---------------------------------------------------------------------
 Rotational constants (GHZ):      0.2326065      0.0475400      0.0458168
 Leave Link  202 at Mon Feb  3 21:37:00 2025, MaxMem=  5368709120 cpu:         0.1
 (Enter /home/k0335/k033513/app/g09/l301.exe)
 Standard basis: 6-31G(d,p) (6D, 7F)
 Ernie: Thresh=  0.10000D-02 Tol=  0.10000D-05 Strict=F.
   650 basis functions,  1155 primitive gaussians,   650 cartesian basis functions
   138 alpha electrons      138 beta electrons
       nuclear repulsion energy      4549.5355857980 Hartrees.
 IExCor=20419 DFT=T Ex+Corr=CAM-B3LYP ExCW=0 ScaHFX=  1.000000
 ScaDFX=  1.000000  1.000000  1.000000  0.810000 ScalE2=  1.000000  1.000000
 IRadAn=      0 IRanWt=     -1 IRanGd=            0 ICorTp=0 IEmpDi=  4
  HFx wShort=  0.000000 wLong=  0.330000 cFull=  0.190000 cShort=  0.000000 cLong=  0.460000
  DFx wShort=  0.000000 wLong=  0.330000 cFull=  0.190000 cShort=  0.000000 cLong=  0.460000
 NAtoms=   60 NActive=   60 NUniq=   60 SFac= 1.00D+00 NAtFMM=   60 NAOKFM=T Big=T
 Integral buffers will be    131072 words long.
 Raffenetti 2 integral format.
 Two-electron integral symmetry is turned off.
 Using the following non-standard input for PCM:
 eps=2.05
 --- end of non-standard input.
 ------------------------------------------------------------------------------
 Polarizable Continuum Model (PCM)
 =================================
 Model                : PCM (using non-symmetric T matrix).
 Atomic radii         : UFF (Universal Force Field).
 Polarization charges : Total charges.
 Charge compensation  : None.
 Solution method      : On-the-fly selection.
 Cavity type          : Scaled VdW (van der Waals Surface) (Alpha=1.100).
 Cavity algorithm     : GePol (No added spheres)
                        Default sphere list used, NSphG=   60.
                        Lebedev-Laikov grids with approx.  5.0 points / Ang**2.
                        Smoothing algorithm: Karplus/York (Gamma=1.0000).
                        Polarization charges: spherical gaussians, with
                                              point-specific exponents (IZeta= 3).
                        Self-potential: point-specific (ISelfS= 7).
                        Self-field    : sphere-specific E.n sum rule (ISelfD= 2).
 Solvent              : Generic,
                        Eps                           =   2.050000
                        Eps(infinity)                 =   0.000000
                        RSolv                         =   0.000000 Ang.
                        Molar volume                  =   0.000000 cm**3/mol
                        Thermal expansion coefficient =   0.000000 K**-1
                        Absolute temperature          = 298.150000 K
                        Numeral density               =   0.000000 Ang**-3
                        Hydrogen bond acidity         =   0.000000
                        Hydrogen bond basicity        =   0.000000
                        Surface tension at interface  =   0.000000 (cal/mol)*Ang**-2
                        Carbon aromaticity            =   0.000000
                        Electronegative halogenicity  =   0.000000
 ------------------------------------------------------------------------------
 GePol: Number of generator spheres                  =      60
 GePol: Total number of spheres                      =      60
 GePol: Number of exposed spheres                    =      60 (100.00%)
 GePol: Number of points                             =    4118
 GePol: Average weight of points                     =       0.13
 GePol: Minimum weight of points                     =   0.16D-09
 GePol: Maximum weight of points                     =    0.20577
 GePol: Number of points with low weight             =     235
 GePol: Fraction of low-weight points (<1% of avg)   =       5.71%
 GePol: Cavity surface area                          =    522.571 Ang**2
 GePol: Cavity volume                                =    605.014 Ang**3
 Leave Link  301 at Mon Feb  3 21:37:00 2025, MaxMem=  5368709120 cpu:         0.8
 (Enter /home/k0335/k033513/app/g09/l302.exe)
 NPDir=0 NMtPBC=     1 NCelOv=     1 NCel=       1 NClECP=     1 NCelD=      1
         NCelK=      1 NCelE2=     1 NClLst=     1 CellRange=     0.0.
 One-electron integrals computed using PRISM.
 NBasis=   650 RedAO= T EigKep=  8.63D-04  NBF=   650
 NBsUse=   650 1.00D-06 EigRej= -1.00D+00 NBFU=   650
 Precomputing XC quadrature grid using
 IXCGrd= 4 IRadAn=           0 IRanWt=          -1 IRanGd=           0 AccXCQ= 0.00D+00.
 Generated NRdTot=       0 NPtTot=           0 NUsed=           0 NTot=          32
 NSgBfM=   598   598   610   614   614 MxSgAt=    60 MxSgA2=    60.
 Leave Link  302 at Mon Feb  3 21:37:01 2025, MaxMem=  5368709120 cpu:        14.9
 (Enter /home/k0335/k033513/app/g09/l303.exe)
 DipDrv:  MaxL=1.
 Leave Link  303 at Mon Feb  3 21:37:01 2025, MaxMem=  5368709120 cpu:         1.0
 (Enter /home/k0335/k033513/app/g09/l401.exe)
 ExpMin= 1.61D-01 ExpMax= 7.00D+03 ExpMxC= 1.05D+03 IAcc=1 IRadAn=         1 AccDes= 0.00D+00
 Harris functional with IExCor=20419 and IRadAn=       1 diagonalized for initial guess.
 HarFok:  IExCor=20419 AccDes= 0.00D+00 IRadAn=         1 IDoV= 1 UseB2=F ITyADJ=14
 ICtDFT=  3500011 ScaDFX=  1.000000  1.000000  1.000000  1.000000
 FoFCou: FMM=F IPFlag=           0 FMFlag=      100000 FMFlg1=        2001
         NFxFlg=           0 DoJE=T BraDBF=F KetDBF=T FulRan=T
         wScrn=  0.000000 ICntrl=     500 IOpCl=  0 I1Cent=   200000004 NGrid=           0
         NMat0=    1 NMatS0=      1 NMatT0=    0 NMatD0=    1 NMtDS0=    0 NMtDT0=    0
 Symmetry not used in FoFCou.
 Harris En= -2096.17604378602    
 JPrj=0 DoOrth=F DoCkMO=F.
 Leave Link  401 at Mon Feb  3 21:37:02 2025, MaxMem=  5368709120 cpu:        16.6
 (Enter /home/k0335/k033513/app/g09/l502.exe)
 Closed shell SCF:
 Using DIIS extrapolation, IDIIS=  1040.
 Two-electron integral symmetry not used.
 IVT=     1305670 IEndB=     1305670 NGot=  5368709120 MDV=  5367843241
 LenX=  5367843241 LenY=  5367420091
 Requested convergence on RMS density matrix=1.00D-08 within 128 cycles.
 Requested convergence on MAX density matrix=1.00D-06.
 Requested convergence on             energy=1.00D-06.
 No special actions if energy rises.
 Fock matrices will be formed incrementally for  20 cycles.

 Cycle   1  Pass 1  IDiag  1:
 FoFJK:  IHMeth= 1 ICntrl=       0 DoSepK=T KAlg= 0 I1Cent=   0 FoldK=F
 IRaf=         1 NMat=   1 IRICut=       1 DoRegI=T DoRafI=F ISym2E= 0.
 FoFCou: FMM=T IPFlag=           0 FMFlag=      100000 FMFlg1=        2001
         NFxFlg=           0 DoJE=T BraDBF=F KetDBF=F FulRan=T
         wScrn=  0.000000 ICntrl=     500 IOpCl=  0 I1Cent=           0 NGrid=           0
         NMat0=    1 NMatS0=      1 NMatT0=    0 NMatD0=    1 NMtDS0=    0 NMtDT0=    0
 Symmetry not used in FoFCou.
 FMM levels:  10  Number of levels for PrismC:   9
 Inv3:  Mode=1 IEnd=    50873772.
 Iteration    1 A*A^-1 deviation from unit magnitude is 4.88D-15 for   4105.
 Iteration    1 A*A^-1 deviation from orthogonality  is 3.28D-15 for   4111   1004.
 Iteration    1 A^-1*A deviation from unit magnitude is 4.88D-15 for   4105.
 Iteration    1 A^-1*A deviation from orthogonality  is 2.47D-15 for   4095   1000.
 E= -2166.92484058933    
 DIIS: error= 6.38D-02 at cycle   1 NSaved=   1.
 NSaved= 1 IEnMin= 1 EnMin= -2166.92484058933     IErMin= 1 ErrMin= 6.38D-02
 ErrMax= 6.38D-02  0.00D+00 EMaxC= 1.00D-01 BMatC= 1.77D+00 BMatP= 1.77D+00
 IDIUse=3 WtCom= 3.62D-01 WtEn= 6.38D-01
 Coeff-Com:  0.100D+01
 Coeff-En:   0.100D+01
 Coeff:      0.100D+01
 Gap=     0.423 Goal=   None    Shift=    0.000
 GapD=    0.423 DampG=2.000 DampE=0.500 DampFc=1.0000 IDamp=-1.
 RMSDP=2.45D-03 MaxDP=1.36D-01              OVMax= 1.29D-01

 Cycle   2  Pass 1  IDiag  1:
 RMSU=  2.45D-03    CP:  9.90D-01
 E= -2167.17055368579     Delta-E=       -0.245713096461 Rises=F Damp=F
 DIIS: error= 2.12D-02 at cycle   2 NSaved=   2.
 NSaved= 2 IEnMin= 2 EnMin= -2167.17055368579     IErMin= 2 ErrMin= 2.12D-02
 ErrMax= 2.12D-02  0.00D+00 EMaxC= 1.00D-01 BMatC= 6.68D-01 BMatP= 1.77D+00
 IDIUse=3 WtCom= 7.88D-01 WtEn= 2.12D-01
 Coeff-Com:  0.357D+00 0.643D+00
 Coeff-En:   0.354D+00 0.646D+00
 Coeff:      0.356D+00 0.644D+00
 Gap=     0.360 Goal=   None    Shift=    0.000
 RMSDP=1.19D-03 MaxDP=8.25D-02 DE=-2.46D-01 OVMax= 8.80D-02

 Cycle   3  Pass 1  IDiag  1:
 RMSU=  7.29D-04    CP:  9.99D-01  6.17D-01
 E= -2167.50509423674     Delta-E=       -0.334540550952 Rises=F Damp=F
 DIIS: error= 7.34D-03 at cycle   3 NSaved=   3.
 NSaved= 3 IEnMin= 3 EnMin= -2167.50509423674     IErMin= 3 ErrMin= 7.34D-03
 ErrMax= 7.34D-03  0.00D+00 EMaxC= 1.00D-01 BMatC= 1.24D-01 BMatP= 6.68D-01
 IDIUse=3 WtCom= 9.27D-01 WtEn= 7.34D-02
 Coeff-Com:  0.670D-01 0.315D+00 0.618D+00
 Coeff-En:   0.000D+00 0.119D+00 0.881D+00
 Coeff:      0.621D-01 0.300D+00 0.638D+00
 Gap=     0.319 Goal=   None    Shift=    0.000
 RMSDP=5.27D-04 MaxDP=4.34D-02 DE=-3.35D-01 OVMax= 4.87D-02

 Cycle   4  Pass 1  IDiag  1:
 RMSU=  2.77D-04    CP:  9.94D-01  7.14D-01  4.87D-01
 E= -2167.57875186771     Delta-E=       -0.073657630975 Rises=F Damp=F
 DIIS: error= 3.03D-03 at cycle   4 NSaved=   4.
 NSaved= 4 IEnMin= 4 EnMin= -2167.57875186771     IErMin= 4 ErrMin= 3.03D-03
 ErrMax= 3.03D-03  0.00D+00 EMaxC= 1.00D-01 BMatC= 1.18D-02 BMatP= 1.24D-01
 IDIUse=3 WtCom= 9.70D-01 WtEn= 3.03D-02
 Coeff-Com:  0.625D-02 0.980D-01 0.324D+00 0.572D+00
 Coeff-En:   0.000D+00 0.000D+00 0.269D-01 0.973D+00
 Coeff:      0.606D-02 0.950D-01 0.315D+00 0.584D+00
 Gap=     0.297 Goal=   None    Shift=    0.000
 RMSDP=1.54D-04 MaxDP=1.63D-02 DE=-7.37D-02 OVMax= 2.44D-02

 Cycle   5  Pass 1  IDiag  1:
 RMSU=  6.94D-05    CP:  9.94D-01  7.14D-01  6.15D-01  6.36D-01
 E= -2167.58699431189     Delta-E=       -0.008242444173 Rises=F Damp=F
 DIIS: error= 9.01D-04 at cycle   5 NSaved=   5.
 NSaved= 5 IEnMin= 5 EnMin= -2167.58699431189     IErMin= 5 ErrMin= 9.01D-04
 ErrMax= 9.01D-04  0.00D+00 EMaxC= 1.00D-01 BMatC= 6.51D-04 BMatP= 1.18D-02
 IDIUse=3 WtCom= 9.91D-01 WtEn= 9.01D-03
 Coeff-Com:  0.571D-03 0.392D-01 0.149D+00 0.321D+00 0.490D+00
 Coeff-En:   0.000D+00 0.000D+00 0.000D+00 0.000D+00 0.100D+01
 Coeff:      0.566D-03 0.389D-01 0.148D+00 0.318D+00 0.495D+00
 Gap=     0.295 Goal=   None    Shift=    0.000
 RMSDP=3.37D-05 MaxDP=3.97D-03 DE=-8.24D-03 OVMax= 7.21D-03

 Cycle   6  Pass 1  IDiag  1:
 RMSU=  2.05D-05    CP:  9.94D-01  7.15D-01  6.16D-01  6.56D-01  6.28D-01
 E= -2167.58746458611     Delta-E=       -0.000470274225 Rises=F Damp=F
 DIIS: error= 1.68D-04 at cycle   6 NSaved=   6.
 NSaved= 6 IEnMin= 6 EnMin= -2167.58746458611     IErMin= 6 ErrMin= 1.68D-04
 ErrMax= 1.68D-04  0.00D+00 EMaxC= 1.00D-01 BMatC= 3.26D-05 BMatP= 6.51D-04
 IDIUse=3 WtCom= 9.98D-01 WtEn= 1.68D-03
 Coeff-Com: -0.549D-03 0.391D-02 0.213D-01 0.564D-01 0.207D+00 0.712D+00
 Coeff-En:   0.000D+00 0.000D+00 0.000D+00 0.000D+00 0.000D+00 0.100D+01
 Coeff:     -0.548D-03 0.390D-02 0.212D-01 0.563D-01 0.207D+00 0.712D+00
 Gap=     0.296 Goal=   None    Shift=    0.000
 RMSDP=1.08D-05 MaxDP=8.37D-04 DE=-4.70D-04 OVMax= 1.21D-03

 Cycle   7  Pass 1  IDiag  1:
 RMSU=  7.25D-06    CP:  9.94D-01  7.15D-01  6.19D-01  6.71D-01  7.14D-01
                    CP:  8.77D-01
 E= -2167.58748838841     Delta-E=       -0.000023802297 Rises=F Damp=F
 DIIS: error= 4.13D-05 at cycle   7 NSaved=   7.
 NSaved= 7 IEnMin= 7 EnMin= -2167.58748838841     IErMin= 7 ErrMin= 4.13D-05
 ErrMax= 4.13D-05  0.00D+00 EMaxC= 1.00D-01 BMatC= 4.55D-06 BMatP= 3.26D-05
 IDIUse=1 WtCom= 1.00D+00 WtEn= 0.00D+00
 Coeff-Com: -0.237D-03-0.370D-02-0.107D-01-0.183D-01 0.355D-01 0.328D+00
 Coeff-Com:  0.670D+00
 Coeff:     -0.237D-03-0.370D-02-0.107D-01-0.183D-01 0.355D-01 0.328D+00
 Coeff:      0.670D+00
 Gap=     0.296 Goal=   None    Shift=    0.000
 RMSDP=3.43D-06 MaxDP=2.53D-04 DE=-2.38D-05 OVMax= 4.68D-04

 Cycle   8  Pass 1  IDiag  1:
 RMSU=  2.21D-06    CP:  9.94D-01  7.16D-01  6.19D-01  6.70D-01  7.32D-01
                    CP:  9.70D-01  8.48D-01
 E= -2167.58749233115     Delta-E=       -0.000003942739 Rises=F Damp=F
 DIIS: error= 1.87D-05 at cycle   8 NSaved=   8.
 NSaved= 8 IEnMin= 8 EnMin= -2167.58749233115     IErMin= 8 ErrMin= 1.87D-05
 ErrMax= 1.87D-05  0.00D+00 EMaxC= 1.00D-01 BMatC= 2.88D-07 BMatP= 4.55D-06
 IDIUse=1 WtCom= 1.00D+00 WtEn= 0.00D+00
 Coeff-Com: -0.483D-04-0.171D-02-0.555D-02-0.115D-01 0.119D-02 0.712D-01
 Coeff-Com:  0.260D+00 0.687D+00
 Coeff:     -0.483D-04-0.171D-02-0.555D-02-0.115D-01 0.119D-02 0.712D-01
 Coeff:      0.260D+00 0.687D+00
 Gap=     0.296 Goal=   None    Shift=    0.000
 RMSDP=1.05D-06 MaxDP=7.03D-05 DE=-3.94D-06 OVMax= 1.35D-04

 Cycle   9  Pass 1  IDiag  1:
 RMSU=  7.83D-07    CP:  9.94D-01  7.16D-01  6.19D-01  6.71D-01  7.39D-01
                    CP:  9.83D-01  9.05D-01  1.01D+00
 E= -2167.58749259327     Delta-E=       -0.000000262118 Rises=F Damp=F
 DIIS: error= 4.78D-06 at cycle   9 NSaved=   9.
 NSaved= 9 IEnMin= 9 EnMin= -2167.58749259327     IErMin= 9 ErrMin= 4.78D-06
 ErrMax= 4.78D-06  0.00D+00 EMaxC= 1.00D-01 BMatC= 4.42D-08 BMatP= 2.88D-07
 IDIUse=1 WtCom= 1.00D+00 WtEn= 0.00D+00
 Coeff-Com:  0.954D-05-0.184D-03-0.721D-03-0.230D-02-0.396D-02-0.242D-01
 Coeff-Com:  0.660D-02 0.271D+00 0.754D+00
 Coeff:      0.954D-05-0.184D-03-0.721D-03-0.230D-02-0.396D-02-0.242D-01
 Coeff:      0.660D-02 0.271D+00 0.754D+00
 Gap=     0.296 Goal=   None    Shift=    0.000
 RMSDP=5.39D-07 MaxDP=5.41D-05 DE=-2.62D-07 OVMax= 6.56D-05

 Cycle  10  Pass 1  IDiag  1:
 RMSU=  3.00D-07    CP:  9.94D-01  7.16D-01  6.20D-01  6.71D-01  7.42D-01
                    CP:  9.91D-01  9.35D-01  1.12D+00  9.78D-01
 E= -2167.58749264396     Delta-E=       -0.000000050695 Rises=F Damp=F
 DIIS: error= 2.48D-06 at cycle  10 NSaved=  10.
 NSaved=10 IEnMin=10 EnMin= -2167.58749264396     IErMin=10 ErrMin= 2.48D-06
 ErrMax= 2.48D-06  0.00D+00 EMaxC= 1.00D-01 BMatC= 4.67D-09 BMatP= 4.42D-08
 IDIUse=1 WtCom= 1.00D+00 WtEn= 0.00D+00
 Coeff-Com:  0.108D-04 0.176D-03 0.522D-03 0.733D-03-0.967D-03-0.191D-01
 Coeff-Com: -0.322D-01-0.766D-02 0.253D+00 0.806D+00
 Coeff:      0.108D-04 0.176D-03 0.522D-03 0.733D-03-0.967D-03-0.191D-01
 Coeff:     -0.322D-01-0.766D-02 0.253D+00 0.806D+00
 Gap=     0.296 Goal=   None    Shift=    0.000
 RMSDP=2.01D-07 MaxDP=1.84D-05 DE=-5.07D-08 OVMax= 3.72D-05

 Cycle  11  Pass 1  IDiag  1:
 RMSU=  1.00D-07    CP:  9.94D-01  7.16D-01  6.20D-01  6.71D-01  7.43D-01
                    CP:  9.92D-01  9.46D-01  1.16D+00  1.11D+00  1.01D+00
 E= -2167.58749264966     Delta-E=       -0.000000005701 Rises=F Damp=F
 DIIS: error= 9.75D-07 at cycle  11 NSaved=  11.
 NSaved=11 IEnMin=11 EnMin= -2167.58749264966     IErMin=11 ErrMin= 9.75D-07
 ErrMax= 9.75D-07  0.00D+00 EMaxC= 1.00D-01 BMatC= 1.12D-09 BMatP= 4.67D-09
 IDIUse=1 WtCom= 1.00D+00 WtEn= 0.00D+00
 Coeff-Com:  0.523D-05 0.116D-03 0.359D-03 0.624D-03 0.242D-04-0.802D-02
 Coeff-Com: -0.175D-01-0.304D-01 0.627D-01 0.428D+00 0.564D+00
 Coeff:      0.523D-05 0.116D-03 0.359D-03 0.624D-03 0.242D-04-0.802D-02
 Coeff:     -0.175D-01-0.304D-01 0.627D-01 0.428D+00 0.564D+00
 Gap=     0.296 Goal=   None    Shift=    0.000
 RMSDP=6.28D-08 MaxDP=6.90D-06 DE=-5.70D-09 OVMax= 1.03D-05

 Cycle  12  Pass 1  IDiag  1:
 RMSU=  4.10D-08    CP:  9.94D-01  7.16D-01  6.20D-01  6.71D-01  7.43D-01
                    CP:  9.92D-01  9.48D-01  1.17D+00  1.13D+00  1.09D+00
                    CP:  8.51D-01
 E= -2167.58749265052     Delta-E=       -0.000000000857 Rises=F Damp=F
 DIIS: error= 3.63D-07 at cycle  12 NSaved=  12.
 NSaved=12 IEnMin=12 EnMin= -2167.58749265052     IErMin=12 ErrMin= 3.63D-07
 ErrMax= 3.63D-07  0.00D+00 EMaxC= 1.00D-01 BMatC= 1.08D-10 BMatP= 1.12D-09
 IDIUse=1 WtCom= 1.00D+00 WtEn= 0.00D+00
 Coeff-Com:  0.150D-06 0.174D-04 0.584D-04 0.130D-03 0.296D-03 0.156D-03
 Coeff-Com: -0.116D-02-0.114D-01-0.197D-01 0.317D-01 0.233D+00 0.766D+00
 Coeff:      0.150D-06 0.174D-04 0.584D-04 0.130D-03 0.296D-03 0.156D-03
 Coeff:     -0.116D-02-0.114D-01-0.197D-01 0.317D-01 0.233D+00 0.766D+00
 Gap=     0.296 Goal=   None    Shift=    0.000
 RMSDP=2.43D-08 MaxDP=3.35D-06 DE=-8.57D-10 OVMax= 5.63D-06

 Cycle  13  Pass 1  IDiag  1:
 RMSU=  1.43D-08    CP:  9.94D-01  7.16D-01  6.20D-01  6.71D-01  7.43D-01
                    CP:  9.92D-01  9.48D-01  1.17D+00  1.14D+00  1.12D+00
                    CP:  9.79D-01  9.29D-01
 E= -2167.58749265063     Delta-E=       -0.000000000107 Rises=F Damp=F
 DIIS: error= 1.06D-07 at cycle  13 NSaved=  13.
 NSaved=13 IEnMin=13 EnMin= -2167.58749265063     IErMin=13 ErrMin= 1.06D-07
 ErrMax= 1.06D-07  0.00D+00 EMaxC= 1.00D-01 BMatC= 2.20D-11 BMatP= 1.08D-10
 IDIUse=1 WtCom= 1.00D+00 WtEn= 0.00D+00
 Coeff-Com: -0.611D-06-0.489D-05-0.128D-04-0.899D-05 0.157D-03 0.102D-02
 Coeff-Com:  0.153D-02-0.219D-02-0.184D-01-0.386D-01 0.437D-01 0.392D+00
 Coeff-Com:  0.621D+00
 Coeff:     -0.611D-06-0.489D-05-0.128D-04-0.899D-05 0.157D-03 0.102D-02
 Coeff:      0.153D-02-0.219D-02-0.184D-01-0.386D-01 0.437D-01 0.392D+00
 Coeff:      0.621D+00
 Gap=     0.296 Goal=   None    Shift=    0.000
 RMSDP=9.44D-09 MaxDP=8.75D-07 DE=-1.07D-10 OVMax= 1.91D-06

 Error on total polarization charges =  0.00470
 SCF Done:  E(RCAM-B3LYP) =  -2167.58749265     A.U. after   13 cycles
            NFock= 13  Conv=0.94D-08     -V/T= 2.0078
 KE= 2.150824711985D+03 PE=-1.420024372756D+04 EE= 5.332295937123D+03
 Leave Link  502 at Mon Feb  3 21:38:01 2025, MaxMem=  5368709120 cpu:      1255.6
 (Enter /home/k0335/k033513/app/g09/l601.exe)
 Copying SCF densities to generalized density rwf, IOpCl= 0 IROHF=0.

 **********************************************************************

            Population analysis using the SCF density.

 **********************************************************************

 Alpha  occ. eigenvalues --  -24.83810 -24.83549 -24.83269 -24.83099 -24.82991
 Alpha  occ. eigenvalues --  -24.82865 -24.82423 -24.82343 -24.81523 -24.81388
 Alpha  occ. eigenvalues --  -19.32183 -19.30452 -19.25806 -19.21556 -19.21439
 Alpha  occ. eigenvalues --  -14.45153 -10.53281 -10.49729 -10.49282 -10.47434
 Alpha  occ. eigenvalues --  -10.47415 -10.44881 -10.43171 -10.39624 -10.30295
 Alpha  occ. eigenvalues --  -10.30031 -10.29285 -10.25840 -10.25287 -10.24853
 Alpha  occ. eigenvalues --  -10.24389 -10.24171 -10.24127 -10.24104 -10.23856
 Alpha  occ. eigenvalues --   -1.40958  -1.38830  -1.38000  -1.37157  -1.35536
 Alpha  occ. eigenvalues --   -1.34647  -1.33231  -1.32082  -1.30969  -1.30119
 Alpha  occ. eigenvalues --   -1.22514  -1.20556  -1.13481  -1.12792  -1.10267
 Alpha  occ. eigenvalues --   -1.01592  -0.98088  -0.90783  -0.89558  -0.88331
 Alpha  occ. eigenvalues --   -0.86540  -0.85748  -0.82987  -0.80660  -0.79267
 Alpha  occ. eigenvalues --   -0.78032  -0.77058  -0.75622  -0.74642  -0.72516
 Alpha  occ. eigenvalues --   -0.71266  -0.70759  -0.70206  -0.69599  -0.68662
 Alpha  occ. eigenvalues --   -0.67944  -0.67294  -0.66537  -0.66119  -0.65666
 Alpha  occ. eigenvalues --   -0.65429  -0.64839  -0.64501  -0.63852  -0.63193
 Alpha  occ. eigenvalues --   -0.62164  -0.60598  -0.58926  -0.58052  -0.57135
 Alpha  occ. eigenvalues --   -0.56753  -0.56664  -0.56462  -0.55705  -0.55556
 Alpha  occ. eigenvalues --   -0.54755  -0.54333  -0.54188  -0.53841  -0.53502
 Alpha  occ. eigenvalues --   -0.53327  -0.53002  -0.52781  -0.52650  -0.52316
 Alpha  occ. eigenvalues --   -0.52160  -0.51950  -0.50945  -0.50793  -0.50381
 Alpha  occ. eigenvalues --   -0.50360  -0.50082  -0.49729  -0.49444  -0.49067
 Alpha  occ. eigenvalues --   -0.48611  -0.48393  -0.48232  -0.47192  -0.46701
 Alpha  occ. eigenvalues --   -0.46449  -0.46008  -0.45534  -0.44936  -0.44091
 Alpha  occ. eigenvalues --   -0.44049  -0.43227  -0.42399  -0.42008  -0.41843
 Alpha  occ. eigenvalues --   -0.41382  -0.40570  -0.40464  -0.39358  -0.38938
 Alpha  occ. eigenvalues --   -0.38135  -0.37598  -0.36489  -0.36121  -0.34733
 Alpha  occ. eigenvalues --   -0.34340  -0.32914  -0.30626
 Alpha virt. eigenvalues --   -0.01039   0.02646   0.04382   0.07171   0.09691
 Alpha virt. eigenvalues --    0.11362   0.12200   0.13010   0.13378   0.13946
 Alpha virt. eigenvalues --    0.14378   0.15635   0.15786   0.17339   0.17952
 Alpha virt. eigenvalues --    0.18492   0.18574   0.18939   0.19655   0.19864
 Alpha virt. eigenvalues --    0.20251   0.21500   0.21566   0.22266   0.22430
 Alpha virt. eigenvalues --    0.22663   0.23023   0.23165   0.23807   0.24251
 Alpha virt. eigenvalues --    0.24483   0.24604   0.25234   0.25449   0.25990
 Alpha virt. eigenvalues --    0.26645   0.27165   0.27574   0.28005   0.28213
 Alpha virt. eigenvalues --    0.28489   0.28751   0.29932   0.30262   0.30607
 Alpha virt. eigenvalues --    0.31020   0.31583   0.32123   0.32566   0.32653
 Alpha virt. eigenvalues --    0.33006   0.33178   0.34028   0.34730   0.35569
 Alpha virt. eigenvalues --    0.35636   0.36523   0.37332   0.37973   0.39823
 Alpha virt. eigenvalues --    0.41850   0.45030   0.48033   0.49347   0.50920
 Alpha virt. eigenvalues --    0.51442   0.52977   0.54630   0.55468   0.55730
 Alpha virt. eigenvalues --    0.56396   0.56933   0.57901   0.58038   0.58530
 Alpha virt. eigenvalues --    0.59075   0.59762   0.59930   0.60201   0.60776
 Alpha virt. eigenvalues --    0.61183   0.61638   0.62260   0.62824   0.63798
 Alpha virt. eigenvalues --    0.63919   0.64869   0.65870   0.66163   0.66660
 Alpha virt. eigenvalues --    0.67988   0.68487   0.69736   0.71049   0.71416
 Alpha virt. eigenvalues --    0.71668   0.72046   0.72279   0.72716   0.73201
 Alpha virt. eigenvalues --    0.73271   0.74362   0.75470   0.75856   0.76421
 Alpha virt. eigenvalues --    0.76786   0.77102   0.78759   0.79318   0.80101
 Alpha virt. eigenvalues --    0.80566   0.81832   0.82359   0.83564   0.84095
 Alpha virt. eigenvalues --    0.85419   0.86518   0.87642   0.87826   0.88776
 Alpha virt. eigenvalues --    0.89302   0.90139   0.90480   0.91118   0.91584
 Alpha virt. eigenvalues --    0.92019   0.92647   0.93107   0.93399   0.94143
 Alpha virt. eigenvalues --    0.94931   0.94983   0.95734   0.95790   0.96308
 Alpha virt. eigenvalues --    0.96410   0.97167   0.97426   0.98570   0.98697
 Alpha virt. eigenvalues --    0.99390   0.99807   1.01125   1.01722   1.02136
 Alpha virt. eigenvalues --    1.02687   1.03392   1.03996   1.04542   1.05229
 Alpha virt. eigenvalues --    1.05829   1.06035   1.06952   1.07234   1.07659
 Alpha virt. eigenvalues --    1.08792   1.09214   1.09784   1.10853   1.11051
 Alpha virt. eigenvalues --    1.11639   1.12988   1.13648   1.14630   1.15111
 Alpha virt. eigenvalues --    1.15992   1.17054   1.17664   1.19276   1.19847
 Alpha virt. eigenvalues --    1.20761   1.21294   1.23149   1.23829   1.24682
 Alpha virt. eigenvalues --    1.25581   1.26702   1.27606   1.29385   1.29913
 Alpha virt. eigenvalues --    1.30403   1.30911   1.31453   1.32644   1.33709
 Alpha virt. eigenvalues --    1.34275   1.35550   1.35973   1.36326   1.36913
 Alpha virt. eigenvalues --    1.37953   1.38465   1.39179   1.39729   1.40287
 Alpha virt. eigenvalues --    1.40704   1.41206   1.41915   1.42475   1.43102
 Alpha virt. eigenvalues --    1.43542   1.44716   1.45354   1.45407   1.45831
 Alpha virt. eigenvalues --    1.46733   1.47348   1.48072   1.49458   1.50267
 Alpha virt. eigenvalues --    1.50959   1.51611   1.52022   1.52696   1.53621
 Alpha virt. eigenvalues --    1.54934   1.56050   1.56606   1.57548   1.58268
 Alpha virt. eigenvalues --    1.59538   1.59656   1.60185   1.60683   1.61940
 Alpha virt. eigenvalues --    1.62516   1.63772   1.63940   1.65285   1.67210
 Alpha virt. eigenvalues --    1.67665   1.67871   1.68446   1.69212   1.70348
 Alpha virt. eigenvalues --    1.70609   1.71114   1.71688   1.72292   1.74374
 Alpha virt. eigenvalues --    1.74726   1.75310   1.75862   1.76176   1.76796
 Alpha virt. eigenvalues --    1.76876   1.77501   1.78575   1.79634   1.80034
 Alpha virt. eigenvalues --    1.80437   1.81405   1.82146   1.82469   1.83018
 Alpha virt. eigenvalues --    1.83675   1.84184   1.85031   1.85354   1.86061
 Alpha virt. eigenvalues --    1.86813   1.87741   1.87837   1.88673   1.89368
 Alpha virt. eigenvalues --    1.90522   1.90885   1.91042   1.91673   1.91800
 Alpha virt. eigenvalues --    1.92134   1.92902   1.93576   1.93777   1.94372
 Alpha virt. eigenvalues --    1.94456   1.95429   1.95614   1.97055   1.97549
 Alpha virt. eigenvalues --    1.97966   1.98073   1.98611   1.98913   1.99387
 Alpha virt. eigenvalues --    2.00024   2.00603   2.01396   2.01899   2.02614
 Alpha virt. eigenvalues --    2.02991   2.03657   2.05002   2.05872   2.06323
 Alpha virt. eigenvalues --    2.06655   2.07598   2.08084   2.08606   2.08902
 Alpha virt. eigenvalues --    2.09244   2.09562   2.10240   2.10537   2.11486
 Alpha virt. eigenvalues --    2.11777   2.13064   2.13354   2.13760   2.14116
 Alpha virt. eigenvalues --    2.14426   2.14494   2.15844   2.16110   2.16408
 Alpha virt. eigenvalues --    2.16815   2.18307   2.19017   2.19061   2.19796
 Alpha virt. eigenvalues --    2.20410   2.20743   2.21207   2.22174   2.23369
 Alpha virt. eigenvalues --    2.23666   2.23754   2.25869   2.26600   2.27342
 Alpha virt. eigenvalues --    2.27838   2.28460   2.28859   2.29313   2.30156
 Alpha virt. eigenvalues --    2.30638   2.31604   2.32917   2.33167   2.33583
 Alpha virt. eigenvalues --    2.33945   2.34571   2.35172   2.35398   2.35610
 Alpha virt. eigenvalues --    2.36573   2.37276   2.37791   2.38802   2.38844
 Alpha virt. eigenvalues --    2.39664   2.40822   2.41224   2.41825   2.42538
 Alpha virt. eigenvalues --    2.42963   2.43081   2.43513   2.44426   2.45528
 Alpha virt. eigenvalues --    2.46367   2.47580   2.48335   2.48541   2.49772
 Alpha virt. eigenvalues --    2.50362   2.51659   2.54775   2.55043   2.55453
 Alpha virt. eigenvalues --    2.57112   2.57522   2.59246   2.59638   2.59902
 Alpha virt. eigenvalues --    2.60610   2.61350   2.62184   2.63658   2.64089
 Alpha virt. eigenvalues --    2.64970   2.65894   2.67174   2.67759   2.68203
 Alpha virt. eigenvalues --    2.68709   2.69188   2.69703   2.71817   2.72838
 Alpha virt. eigenvalues --    2.73137   2.75333   2.75554   2.75698   2.76921
 Alpha virt. eigenvalues --    2.77740   2.78396   2.78873   2.79068   2.79979
 Alpha virt. eigenvalues --    2.80881   2.81431   2.81917   2.83259   2.83710
 Alpha virt. eigenvalues --    2.84060   2.84831   2.85326   2.85763   2.86705
 Alpha virt. eigenvalues --    2.86884   2.89074   2.89687   2.90578   2.90876
 Alpha virt. eigenvalues --    2.92042   2.92224   2.92631   2.93446   2.94633
 Alpha virt. eigenvalues --    2.95366   2.96930   2.97280   2.97443   2.98656
 Alpha virt. eigenvalues --    2.99318   2.99545   2.99824   3.00519   3.01036
 Alpha virt. eigenvalues --    3.01420   3.02197   3.04071   3.04473   3.05065
 Alpha virt. eigenvalues --    3.06266   3.07665   3.08183   3.09221   3.10741
 Alpha virt. eigenvalues --    3.13329   3.14027   3.14911   3.18339   3.19269
 Alpha virt. eigenvalues --    3.22074   3.22532   3.26799   3.27320   3.28777
 Alpha virt. eigenvalues --    3.29455   3.30939   3.32748   3.34157   3.35443
 Alpha virt. eigenvalues --    3.36754   3.37582   3.38960   3.40326   3.40782
 Alpha virt. eigenvalues --    3.42563   3.43483   3.46098   3.46648   3.49067
 Alpha virt. eigenvalues --    3.49849   3.52520   3.54321   3.55045   3.55603
 Alpha virt. eigenvalues --    3.57507   3.58069   3.62467   3.63056   3.64734
 Alpha virt. eigenvalues --    3.65357   3.67904   4.02415   4.10941   4.12747
 Alpha virt. eigenvalues --    4.18815   4.24724   4.28625   4.34105   4.35931
 Alpha virt. eigenvalues --    4.40556   4.43725   4.43919   4.46599   4.53587
 Alpha virt. eigenvalues --    4.54259   4.58928   4.62355   4.63155   4.68525
 Alpha virt. eigenvalues --    4.71100   4.72048   4.77448   4.79284   4.81768
 Alpha virt. eigenvalues --    4.83765   4.85427   5.03053   5.12436   5.28906
 Alpha virt. eigenvalues --    5.41735   5.46109   5.65986   5.81255   5.99122
 Alpha virt. eigenvalues --    6.54254   6.99809
          Condensed to atoms (all electrons):
 Mulliken charges:
               1
     1  C   -0.317832
     2  C   -0.179365
     3  C   -0.176903
     4  C   -0.171609
     5  C   -0.094131
     6  C   -0.181404
     7  C   -0.321654
     8  C    0.058109
     9  O   -0.511247
    10  C    0.053875
    11  C   -0.210880
    12  C   -0.038510
    13  N   -0.542115
    14  C    0.542793
    15  C    0.568314
    16  F   -0.265260
    17  F   -0.278962
    18  C    0.454087
    19  F   -0.270684
    20  O   -0.490534
    21  C    0.747144
    22  F   -0.245061
    23  F   -0.239968
    24  C    0.541765
    25  F   -0.246395
    26  F   -0.256886
    27  C    0.180063
    28  C    0.633533
    29  F   -0.271377
    30  C    0.507492
    31  O   -0.471738
    32  O   -0.438840
    33  F   -0.275127
    34  F   -0.281285
    35  O   -0.510016
    36  H    0.099760
    37  H    0.104862
    38  H    0.100706
    39  H    0.089445
    40  H    0.094227
    41  H    0.089373
    42  H    0.096704
    43  H    0.097271
    44  H    0.091048
    45  H    0.081366
    46  H    0.096806
    47  H    0.097002
    48  H    0.107929
    49  H    0.102152
    50  H    0.102636
    51  H    0.099943
    52  H    0.103746
    53  H    0.103801
    54  H    0.095407
    55  H    0.103205
    56  H    0.125907
    57  H    0.151937
    58  H    0.117084
    59  H    0.286294
    60  H    0.361993
 Sum of Mulliken charges =   0.00000
 Mulliken charges with hydrogens summed into heavy atoms:
               1
     1  C   -0.012503
     2  C    0.004307
     3  C    0.009175
     4  C    0.016709
     5  C   -0.012765
     6  C    0.012405
     7  C   -0.008936
     8  C    0.261799
     9  O   -0.511247
    10  C    0.253083
    11  C    0.018231
    12  C    0.230512
    13  N   -0.255821
    14  C    0.542793
    15  C    0.568314
    16  F   -0.265260
    17  F   -0.278962
    18  C    0.454087
    19  F   -0.270684
    20  O   -0.490534
    21  C    0.747144
    22  F   -0.245061
    23  F   -0.239968
    24  C    0.541765
    25  F   -0.246395
    26  F   -0.256886
    27  C    0.180063
    28  C    0.633533
    29  F   -0.271377
    30  C    0.507492
    31  O   -0.109745
    32  O   -0.438840
    33  F   -0.275127
    34  F   -0.281285
    35  O   -0.510016
 Electronic spatial extent (au):  <R**2>=          27367.8663
 Charge=              0.0000 electrons
 Dipole moment (field-independent basis, Debye):
    X=              1.8805    Y=             -1.8383    Z=             -2.9559  Tot=              3.9564
 Quadrupole moment (field-independent basis, Debye-Ang):
   XX=           -183.7963   YY=           -200.1898   ZZ=           -203.9897
   XY=             -3.9697   XZ=            -12.8646   YZ=             -3.7178
 Traceless Quadrupole moment (field-independent basis, Debye-Ang):
   XX=             12.1957   YY=             -4.1978   ZZ=             -7.9978
   XY=             -3.9697   XZ=            -12.8646   YZ=             -3.7178
 Octapole moment (field-independent basis, Debye-Ang**2):
  XXX=           -762.3787  YYY=            -98.8268  ZZZ=           -227.2814  XYY=           -335.8314
  XXY=              7.4391  XXZ=           -167.6050  XZZ=           -313.2027  YZZ=            -49.7553
  YYZ=            -59.2707  XYZ=             -5.1847
 Hexadecapole moment (field-independent basis, Debye-Ang**3):
 XXXX=         -24725.7854 YYYY=          -2332.7270 ZZZZ=          -3394.7211 XXXY=           -809.9525
 XXXZ=          -2926.3102 YYYX=           -967.8613 YYYZ=            -18.1152 ZZZX=          -2146.4215
 ZZZY=              3.5342 XXYY=          -4986.5910 XXZZ=          -4899.5436 YYZZ=           -966.2404
 XXYZ=             74.0907 YYXZ=           -614.2249 ZZXY=           -380.2780
 N-N= 4.549535585798D+03 E-N=-1.420024374366D+04  KE= 2.150824711985D+03
 No NMR shielding tensors so no spin-rotation constants.
 Leave Link  601 at Mon Feb  3 21:38:02 2025, MaxMem=  5368709120 cpu:         6.3
 (Enter /home/k0335/k033513/app/g09/l9999.exe)
 1\1\GINC-C15U06N2\SP\RCAM-B3LYP\6-31G(d,p)\C19H25F10N1O5\K033513\03-Fe
 b-2025\0\\#p CAM-B3LYP/6-31G(d,p) SCRF=(PCM,Solvent=Generic,Read) NoSy
 mm out=wfn\\Title EHOPA0_neu\\0,1\C,0,-7.27809,-0.881099,-1.960567\C,0
 ,-6.580964,-1.270937,-0.665819\C,0,-5.442429,-0.323526,-0.274855\C,0,-
 4.264929,-0.362321,-1.255377\C,0,-3.046805,0.497883,-0.845579\C,0,-3.3
 58256,2.000928,-0.695041\C,0,-3.931782,2.639326,-1.952449\C,0,-2.36648
 2,-0.010358,0.442434\O,0,-2.10325,-1.413816,0.43146\C,0,-1.035711,-1.8
 35548,-0.412038\C,0,0.34198,-1.428447,0.102192\C,0,0.555978,-1.828955,
 1.55986\N,0,1.898279,-1.496887,2.002792\C,0,2.247958,-0.210433,2.38335
 5\C,0,3.73008,-0.017843,2.747873\F,0,3.977121,1.176367,3.353972\F,0,4.
 103653,-0.967548,3.666688\C,0,4.646086,-0.170138,1.513963\F,0,4.442397
 ,-1.412065,0.995535\O,0,6.026408,-0.141679,1.940708\C,0,6.591964,1.068
 609,1.452425\F,0,7.505355,0.705005,0.526138\F,0,7.259511,1.68518,2.444
 204\C,0,5.487577,1.910618,0.843694\F,0,5.885395,2.72735,-0.144478\F,0,
 4.946275,2.705255,1.806251\C,0,4.474954,0.884383,0.431091\C,0,4.636726
 ,0.348581,-0.983458\F,0,4.396898,1.383433,-1.850015\C,0,5.964635,-0.33
 1626,-1.31131\O,0,6.810787,0.445156,-2.019706\O,0,6.314864,-1.44641,-0
 .959305\F,0,3.601224,-0.52456,-1.210374\F,0,3.225316,1.436715,0.481061
 \O,0,1.431202,0.708792,2.404301\H,0,-8.143375,-1.530144,-2.130855\H,0,
 -6.612734,-0.985305,-2.822985\H,0,-7.633447,0.153682,-1.919487\H,0,-7.
 32334,-1.271757,0.141645\H,0,-6.202775,-2.296605,-0.748947\H,0,-5.8370
 17,0.695365,-0.196211\H,0,-5.09899,-0.610964,0.724871\H,0,-3.942022,-1
 .402991,-1.383052\H,0,-4.601871,-0.038367,-2.246456\H,0,-2.320706,0.40
 0303,-1.663388\H,0,-4.046587,2.169531,0.141494\H,0,-2.430048,2.529207,
 -0.440542\H,0,-4.929987,2.253925,-2.180807\H,0,-4.02059,3.722049,-1.81
 5465\H,0,-3.282836,2.46007,-2.815398\H,0,-1.445483,0.547633,0.642021\H
 ,0,-3.020159,0.174591,1.301987\H,0,-1.086969,-2.929533,-0.451559\H,0,-
 1.186809,-1.482586,-1.436891\H,0,1.110593,-1.891602,-0.528987\H,0,0.47
 5861,-0.345946,-0.003565\H,0,-0.160801,-1.324562,2.216784\H,0,0.434674
 ,-2.91019,1.684565\H,0,2.589469,-2.241264,2.039517\H,0,7.622025,-0.093
 926,-2.152501\\Version=ES64L-G09RevD.01\HF=-2167.5874927\RMSD=9.435e-0
 9\Dipole=0.7398451,-0.7232439,-1.1629387\Quadrupole=9.0671759,-3.12099
 2,-5.9461839,-2.9513881,-9.564505,-2.7640615\PG=C01 [X(C19H25F10N1O5)]
 \\@

 Writing a WFN file to "cytop/EHOPA0/EHOPA0_neu.wfn"


 SCIENCE AT ITS BEST PROVIDES US WITH BETTER QUESTIONS, 
 NOT ABSOLUTE ANSWERS

                                    -- NORMAN COUSINS, 1976
 Job cpu time:       0 days  0 hours 21 minutes 42.8 seconds.
 File lengths (MBytes):  RWF=    505 Int=      0 D2E=      0 Chk=     17 Scr=      1
 Normal termination of Gaussian 09 at Mon Feb  3 21:38:03 2025.
