 Entering Gaussian System, Link 0=g09
 Initial command:
 /home/k0335/k033513/app/g09/l1.exe "/home/k0335/k033513/app/g09/scratch/Gau-412170.inp" -scrdir="/home/k0335/k033513/app/g09/scratch/"
 Default is to use a total of  36 processors:
                               36 via shared-memory
                                1 via Linda
 Entering Link 1 = /home/k0335/k033513/app/g09/l1.exe PID=    412171.
  
 Copyright (c) 1988,1990,1992,1993,1995,1998,2003,2009,2013,
            Gaussian, Inc.  All Rights Reserved.
  
 This is part of the Gaussian(R) 09 program.  It is based on
 the Gaussian(R) 03 system (copyright 2003, Gaussian, Inc.),
 the Gaussian(R) 98 system (copyright 1998, Gaussian, Inc.),
 the Gaussian(R) 94 system (copyright 1995, Gaussian, Inc.),
 the Gaussian 92(TM) system (copyright 1992, Gaussian, Inc.),
 the Gaussian 90(TM) system (copyright 1990, Gaussian, Inc.),
 the Gaussian 88(TM) system (copyright 1988, Gaussian, Inc.),
 the Gaussian 86(TM) system (copyright 1986, Carnegie Mellon
 University), and the Gaussian 82(TM) system (copyright 1983,
 Carnegie Mellon University). Gaussian is a federally registered
 trademark of Gaussian, Inc.
  
 This software contains proprietary and confidential information,
 including trade secrets, belonging to Gaussian, Inc.
  
 This software is provided under written license and may be
 used, copied, transmitted, or stored only in accord with that
 written license.
  
 The following legend is applicable only to US Government
 contracts under FAR:
  
                    RESTRICTED RIGHTS LEGEND
  
 Use, reproduction and disclosure by the US Government is
 subject to restrictions as set forth in subparagraphs (a)
 and (c) of the Commercial Computer Software - Restricted
 Rights clause in FAR 52.227-19.
  
 Gaussian, Inc.
 340 Quinnipiac St., Bldg. 40, Wallingford CT 06492
  
  
 ---------------------------------------------------------------
 Warning -- This program may not be used in any manner that
 competes with the business of Gaussian, Inc. or will provide
 assistance to any competitor of Gaussian, Inc.  The licensee
 of this program is prohibited from giving any competitor of
 Gaussian, Inc. access to this program.  By using this program,
 the user acknowledges that Gaussian, Inc. is engaged in the
 business of creating and licensing software in the field of
 computational chemistry and represents and warrants to the
 licensee that it is not a competitor of Gaussian, Inc. and that
 it will not use this program in any manner prohibited above.
 ---------------------------------------------------------------
  

 Cite this work as:
 Gaussian 09, Revision D.01,
 M. J. Frisch, G. W. Trucks, H. B. Schlegel, G. E. Scuseria, 
 M. A. Robb, J. R. Cheeseman, G. Scalmani, V. Barone, B. Mennucci, 
 G. A. Petersson, H. Nakatsuji, M. Caricato, X. Li, H. P. Hratchian, 
 A. F. Izmaylov, J. Bloino, G. Zheng, J. L. Sonnenberg, M. Hada, 
 M. Ehara, K. Toyota, R. Fukuda, J. Hasegawa, M. Ishida, T. Nakajima, 
 Y. Honda, O. Kitao, H. Nakai, T. Vreven, J. A. Montgomery, Jr., 
 J. E. Peralta, F. Ogliaro, M. Bearpark, J. J. Heyd, E. Brothers, 
 K. N. Kudin, V. N. Staroverov, T. Keith, R. Kobayashi, J. Normand, 
 K. Raghavachari, A. Rendell, J. C. Burant, S. S. Iyengar, J. Tomasi, 
 M. Cossi, N. Rega, J. M. Millam, M. Klene, J. E. Knox, J. B. Cross, 
 V. Bakken, C. Adamo, J. Jaramillo, R. Gomperts, R. E. Stratmann, 
 O. Yazyev, A. J. Austin, R. Cammi, C. Pomelli, J. W. Ochterski, 
 R. L. Martin, K. Morokuma, V. G. Zakrzewski, G. A. Voth, 
 P. Salvador, J. J. Dannenberg, S. Dapprich, A. D. Daniels, 
 O. Farkas, J. B. Foresman, J. V. Ortiz, J. Cioslowski, 
 and D. J. Fox, Gaussian, Inc., Wallingford CT, 2013.
 
 ******************************************
 Gaussian 09:  ES64L-G09RevD.01 24-Apr-2013
                 3-Mar-2024 
 ******************************************
 %nprocshared=24
 Will use up to   24 processors via shared memory.
 %mem=40GB
 %rwf=A687474390/A687474390_0.rwf
 %nosave
 %chk=A687474390/A687474390_0.chk
 ----------------------------------------------------------------------
 #p CAM-B3LYP/6-31G(d,p) SCRF=(PCM,Solvent=Generic,Read) NoSymm out=wfn
 ----------------------------------------------------------------------
 1/38=1,40=2/1;
 2/12=2,15=1,17=6,18=5,40=1/2;
 3/5=1,6=6,7=101,11=2,16=1,25=1,30=1,70=2203,72=-2,74=-40/1,2,3;
 4//1;
 5/5=2,38=5/2;
 6/7=2,8=2,9=2,10=2,28=1/1;
 99/5=1,6=100,9=1/99;
 Leave Link    1 at Sun Mar  3 18:05:01 2024, MaxMem=  5368709120 cpu:         2.1
 (Enter /home/k0335/k033513/app/g09/l101.exe)
 ------------------
 Title A687474390_0
 ------------------
 Symbolic Z-matrix:
 Charge =  0 Multiplicity = 1
 C                    -3.70988  -1.92898  -3.00899 
 C                    -2.67207  -1.19787  -2.17345 
 C                    -2.36966  -1.949    -0.874 
 N                    -1.36743  -1.25363  -0.06566 
 C                    -1.79859  -0.2525    0.77993 
 O                    -2.99024   0.0374    0.8964 
 N                    -0.80935   0.42927   1.45828 
 C                    -1.20757   1.5488    2.3126 
 C                    -1.31857   2.85386   1.52015 
 C                    -1.72967   4.0129    2.41307 
 C                     0.53584   0.20339   1.26184 
 O                     1.38913   0.95556   1.72934 
 N                     0.874    -0.87839   0.49075 
 C                     2.29093  -1.1443    0.30133 
 F                     2.84907  -1.15967   1.55314 
 F                     2.48194  -2.43075  -0.1189 
 C                     3.13426  -0.1989   -0.60914 
 F                     3.1351    1.08175  -0.13769 
 O                     4.51691  -0.55824  -0.78264 
 C                     5.22055  -0.69412   0.42283 
 F                     6.53551  -0.55932   0.16314 
 F                     5.01134  -1.92492   0.91968 
 F                     4.86188   0.23658   1.31889 
 C                     2.50515  -0.1724   -1.99733 
 F                     3.19265   0.65673  -2.82604 
 F                     2.49675  -1.38432  -2.58921 
 F                     1.2337    0.29397  -1.96934 
 C                    -0.03642  -1.50955  -0.31436 
 O                     0.3147   -2.23209  -1.2458 
 H                    -4.65227  -2.03187  -2.46165 
 H                    -3.3594   -2.92941  -3.28211 
 H                    -3.91163  -1.37611  -3.93176 
 H                    -1.7546   -1.07739  -2.76138 
 H                    -3.03534  -0.1882   -1.94878 
 H                    -3.28897  -2.06429  -0.2874 
 H                    -2.0094   -2.95937  -1.1023 
 H                    -0.47517   1.66421   3.12064 
 H                    -2.16904   1.31744   2.78646 
 H                    -2.05149   2.74237   0.71248 
 H                    -0.35934   3.08749   1.04347 
 H                    -1.80329   4.93481   1.8278 
 H                    -2.70401   3.8253    2.87541 
 H                    -0.99602   4.17376   3.20942 
 
 NAtoms=     43 NQM=       43 NQMF=       0 NMMI=      0 NMMIF=      0
                NMic=       0 NMicF=      0.
                    Isotopes and Nuclear Properties:
 (Nuclear quadrupole moments (NQMom) in fm**2, nuclear magnetic moments (NMagM)
  in nuclear magnetons)

  Atom         1           2           3           4           5           6           7           8           9          10
 IAtWgt=          12          12          12          14          12          16          14          12          12          12
 AtmWgt=  12.0000000  12.0000000  12.0000000  14.0030740  12.0000000  15.9949146  14.0030740  12.0000000  12.0000000  12.0000000
 NucSpn=           0           0           0           2           0           0           2           0           0           0
 AtZEff=   0.0000000   0.0000000   0.0000000   0.0000000   0.0000000   0.0000000   0.0000000   0.0000000   0.0000000   0.0000000
 NQMom=    0.0000000   0.0000000   0.0000000   2.0440000   0.0000000   0.0000000   2.0440000   0.0000000   0.0000000   0.0000000
 NMagM=    0.0000000   0.0000000   0.0000000   0.4037610   0.0000000   0.0000000   0.4037610   0.0000000   0.0000000   0.0000000
 AtZNuc=   6.0000000   6.0000000   6.0000000   7.0000000   6.0000000   8.0000000   7.0000000   6.0000000   6.0000000   6.0000000

  Atom        11          12          13          14          15          16          17          18          19          20
 IAtWgt=          12          16          14          12          19          19          12          19          16          12
 AtmWgt=  12.0000000  15.9949146  14.0030740  12.0000000  18.9984033  18.9984033  12.0000000  18.9984033  15.9949146  12.0000000
 NucSpn=           0           0           2           0           1           1           0           1           0           0
 AtZEff=   0.0000000   0.0000000   0.0000000   0.0000000   0.0000000   0.0000000   0.0000000   0.0000000   0.0000000   0.0000000
 NQMom=    0.0000000   0.0000000   2.0440000   0.0000000   0.0000000   0.0000000   0.0000000   0.0000000   0.0000000   0.0000000
 NMagM=    0.0000000   0.0000000   0.4037610   0.0000000   2.6288670   2.6288670   0.0000000   2.6288670   0.0000000   0.0000000
 AtZNuc=   6.0000000   8.0000000   7.0000000   6.0000000   9.0000000   9.0000000   6.0000000   9.0000000   8.0000000   6.0000000

  Atom        21          22          23          24          25          26          27          28          29          30
 IAtWgt=          19          19          19          12          19          19          19          12          16           1
 AtmWgt=  18.9984033  18.9984033  18.9984033  12.0000000  18.9984033  18.9984033  18.9984033  12.0000000  15.9949146   1.0078250
 NucSpn=           1           1           1           0           1           1           1           0           0           1
 AtZEff=   0.0000000   0.0000000   0.0000000   0.0000000   0.0000000   0.0000000   0.0000000   0.0000000   0.0000000   0.0000000
 NQMom=    0.0000000   0.0000000   0.0000000   0.0000000   0.0000000   0.0000000   0.0000000   0.0000000   0.0000000   0.0000000
 NMagM=    2.6288670   2.6288670   2.6288670   0.0000000   2.6288670   2.6288670   2.6288670   0.0000000   0.0000000   2.7928460
 AtZNuc=   9.0000000   9.0000000   9.0000000   6.0000000   9.0000000   9.0000000   9.0000000   6.0000000   8.0000000   1.0000000

  Atom        31          32          33          34          35          36          37          38          39          40
 IAtWgt=           1           1           1           1           1           1           1           1           1           1
 AtmWgt=   1.0078250   1.0078250   1.0078250   1.0078250   1.0078250   1.0078250   1.0078250   1.0078250   1.0078250   1.0078250
 NucSpn=           1           1           1           1           1           1           1           1           1           1
 AtZEff=   0.0000000   0.0000000   0.0000000   0.0000000   0.0000000   0.0000000   0.0000000   0.0000000   0.0000000   0.0000000
 NQMom=    0.0000000   0.0000000   0.0000000   0.0000000   0.0000000   0.0000000   0.0000000   0.0000000   0.0000000   0.0000000
 NMagM=    2.7928460   2.7928460   2.7928460   2.7928460   2.7928460   2.7928460   2.7928460   2.7928460   2.7928460   2.7928460
 AtZNuc=   1.0000000   1.0000000   1.0000000   1.0000000   1.0000000   1.0000000   1.0000000   1.0000000   1.0000000   1.0000000

  Atom        41          42          43
 IAtWgt=           1           1           1
 AtmWgt=   1.0078250   1.0078250   1.0078250
 NucSpn=           1           1           1
 AtZEff=   0.0000000   0.0000000   0.0000000
 NQMom=    0.0000000   0.0000000   0.0000000
 NMagM=    2.7928460   2.7928460   2.7928460
 AtZNuc=   1.0000000   1.0000000   1.0000000
 Leave Link  101 at Sun Mar  3 18:05:01 2024, MaxMem=  5368709120 cpu:         0.9
 (Enter /home/k0335/k033513/app/g09/l202.exe)
                          Input orientation:                          
 ---------------------------------------------------------------------
 Center     Atomic      Atomic             Coordinates (Angstroms)
 Number     Number       Type             X           Y           Z
 ---------------------------------------------------------------------
      1          6           0       -3.709876   -1.928983   -3.008990
      2          6           0       -2.672065   -1.197869   -2.173452
      3          6           0       -2.369658   -1.948995   -0.874004
      4          7           0       -1.367434   -1.253632   -0.065658
      5          6           0       -1.798587   -0.252497    0.779930
      6          8           0       -2.990244    0.037402    0.896400
      7          7           0       -0.809353    0.429270    1.458277
      8          6           0       -1.207568    1.548801    2.312602
      9          6           0       -1.318571    2.853862    1.520150
     10          6           0       -1.729667    4.012904    2.413073
     11          6           0        0.535844    0.203389    1.261838
     12          8           0        1.389130    0.955557    1.729341
     13          7           0        0.874000   -0.878387    0.490750
     14          6           0        2.290925   -1.144297    0.301325
     15          9           0        2.849070   -1.159671    1.553137
     16          9           0        2.481937   -2.430746   -0.118902
     17          6           0        3.134263   -0.198902   -0.609137
     18          9           0        3.135096    1.081750   -0.137685
     19          8           0        4.516909   -0.558236   -0.782635
     20          6           0        5.220554   -0.694119    0.422829
     21          9           0        6.535508   -0.559324    0.163136
     22          9           0        5.011337   -1.924918    0.919676
     23          9           0        4.861880    0.236581    1.318890
     24          6           0        2.505154   -0.172403   -1.997333
     25          9           0        3.192650    0.656726   -2.826037
     26          9           0        2.496752   -1.384324   -2.589209
     27          9           0        1.233696    0.293967   -1.969343
     28          6           0       -0.036418   -1.509550   -0.314362
     29          8           0        0.314695   -2.232089   -1.245800
     30          1           0       -4.652274   -2.031875   -2.461650
     31          1           0       -3.359397   -2.929411   -3.282110
     32          1           0       -3.911631   -1.376113   -3.931760
     33          1           0       -1.754603   -1.077389   -2.761384
     34          1           0       -3.035340   -0.188195   -1.948781
     35          1           0       -3.288971   -2.064286   -0.287402
     36          1           0       -2.009395   -2.959366   -1.102297
     37          1           0       -0.475169    1.664205    3.120639
     38          1           0       -2.169037    1.317442    2.786459
     39          1           0       -2.051491    2.742366    0.712475
     40          1           0       -0.359341    3.087492    1.043475
     41          1           0       -1.803287    4.934810    1.827802
     42          1           0       -2.704006    3.825297    2.875407
     43          1           0       -0.996019    4.173757    3.209424
 ---------------------------------------------------------------------
                    Distance matrix (angstroms):
                    1          2          3          4          5
     1  C    0.000000
     2  C    1.519771   0.000000
     3  C    2.520863   1.531080   0.000000
     4  N    3.821824   2.479509   1.463354   0.000000
     5  C    4.562844   3.221670   2.437155   1.379559   0.000000
     6  O    4.431322   3.324323   2.732257   2.286009   1.231931
     7  N    5.825021   4.393943   3.678346   2.337946   1.379690
     8  C    6.831974   5.460186   4.872319   3.679036   2.437839
     9  C    7.007643   5.647226   5.468473   4.403258   3.229212
    10  C    8.284082   7.005461   6.838034   5.831957   4.567883
    11  C    6.388515   4.904633   4.199586   2.740004   2.426857
    12  O    7.534734   6.030120   5.416855   3.962472   3.538688
    13  N    5.862069   4.446866   3.678325   2.339749   2.760088
    14  C    6.898082   5.546049   4.873394   3.678345   4.212894
    15  F    8.026495   6.661220   5.809403   4.517547   4.798076
    16  F    6.851491   5.683740   4.933583   4.025679   4.886262
    17  C    7.456186   6.095774   5.781533   4.655438   5.124977
    18  F    8.010153   6.562326   6.326918   5.072669   5.192635
    19  O    8.632242   7.350160   7.026191   5.968511   6.513108
    20  C    9.646494   8.323934   7.801782   6.629726   7.042080
    21  F   10.812319   9.520860   9.072421   7.936681   8.362519
    22  F    9.565249   8.314488   7.595851   6.489239   7.013671
    23  F    9.843537   8.427006   7.866427   6.553019   6.700112
    24  C    6.537249   5.280738   5.308666   4.460646   5.122674
    25  F    7.373210   6.185489   6.445113   5.662466   6.224318
    26  F    6.244606   5.188862   5.190638   4.617069   5.575129
    27  F    5.519174   4.185953   4.383470   3.575606   4.129390
    28  C    4.575067   3.240370   2.439328   1.378024   2.425468
    29  O    4.404303   3.294068   2.724725   2.275889   3.533883
    30  H    1.094661   2.167914   2.781695   4.139639   4.670927
    31  H    1.094663   2.167899   2.782045   4.137839   5.109028
    32  H    1.094475   2.158690   3.472139   4.629761   5.284647
    33  H    2.147001   1.096319   2.167993   2.729084   3.636384
    34  H    2.146948   1.096306   2.167647   2.731889   2.996591
    35  H    2.757265   2.165280   1.096599   2.097292   2.577406
    36  H    2.754778   2.165497   1.096703   2.096727   3.303689
    37  H    7.806836   6.406654   5.709770   4.411621   3.302136
    38  H    6.819141   5.583954   4.910076   3.922698   2.574510
    39  H    6.198471   4.923326   4.962561   4.128126   3.006279
    40  H    7.267295   5.836234   5.751895   4.592579   3.646424
    41  H    8.610534   7.373911   7.416691   6.486291   5.292090
    42  H    8.291540   7.122092   6.892918   6.019286   4.673244
    43  H    9.125630   7.787095   7.486612   6.349855   5.112561
                    6          7          8          9         10
     6  O    0.000000
     7  N    2.285947   0.000000
     8  C    2.732744   1.463488   0.000000
     9  C    3.334067   2.478261   1.530845   0.000000
    10  C    4.437789   3.821131   2.520810   1.519766   0.000000
    11  C    3.548858   1.378102   2.440025   3.245087   4.579333
    12  O    4.551452   2.276792   2.726715   3.313452   4.420606
    13  N    3.991942   2.340887   3.680124   4.449350   5.865078
    14  C    5.444380   3.664202   4.851543   5.522615   6.871780
    15  F    5.996822   3.989711   4.936489   5.786084   6.961311
    16  F    6.088297   4.636785   5.946550   6.712483   8.103649
    17  C    6.311265   4.496766   5.517474   5.803530   7.108507
    18  F    6.299189   4.304823   5.008071   5.071878   6.226070
    19  O    7.715652   5.862245   6.840302   7.141292   8.374221
    20  C    8.256912   6.220445   7.065599   7.520136   8.626860
    21  F    9.572550   7.523410   8.307805   8.670518   9.709820
    22  F    8.238722   6.301803   7.258219   7.953933   9.106542
    23  F    7.866004   5.676217   6.288687   6.714808   7.675047
    24  C    6.214266   4.825889   5.943264   6.012640   7.409601
    25  F    7.243499   5.867121   6.823733   6.638363   7.933562
    26  F    6.654164   5.531871   6.808301   7.028922   8.486195
    27  F    5.110771   3.992610   5.086200   5.024310   6.466652
    28  C    3.547407   2.738376   4.198338   4.903949   6.387761
    29  O    4.545573   3.957063   5.410604   6.015391   7.521084
    30  H    4.280275   6.015904   6.890626   7.130129   8.297223
    31  H    5.137918   6.344662   7.482349   7.789282   9.126164
    32  H    5.114500   6.475804   7.406695   7.371565   8.605776
    33  H    4.018576   4.579198   5.739465   5.828927   7.258561
    34  H    2.854467   4.116349   4.951494   4.922894   6.195142
    35  H    2.430580   3.926031   4.913925   5.598026   6.830537
    36  H    3.733293   4.413558   5.712095   6.414677   7.813362
    37  H    3.730862   2.097663   1.096654   2.165220   2.755141
    38  H    2.425944   2.098013   1.096581   2.165044   2.756443
    39  H    2.869132   2.729385   2.167305   1.096331   2.147061
    40  H    4.030674   2.727768   2.167428   1.096323   2.147086
    41  H    5.124547   4.628644   3.472027   2.158690   1.094474
    42  H    4.283287   4.138957   2.781818   2.167911   1.094662
    43  H    5.141638   4.137939   2.781984   2.167904   1.094663
                   11         12         13         14         15
    11  C    0.000000
    12  O    1.229802   0.000000
    13  N    1.370827   2.272183   0.000000
    14  C    2.412292   2.694782   1.454052   0.000000
    15  F    2.700704   2.576172   2.260241   1.370692   0.000000
    16  F    3.554207   4.009648   2.316669   1.366758   2.132166
    17  C    3.227099   3.137952   2.603889   1.560106   2.383242
    18  F    3.079983   2.559318   3.057715   2.420876   2.822173
    19  O    4.539694   4.287726   3.872311   2.544296   2.932446
    20  C    4.843136   4.371294   4.350988   2.966505   2.668009
    21  F    6.146938   5.588655   5.679948   4.286931   3.985266
    22  F    4.967575   4.698199   4.289145   2.896959   2.379553
    23  F    4.326540   3.570068   4.222814   3.090643   2.460853
    24  C    3.826434   4.050420   3.057717   2.504855   3.701191
    25  F    4.896412   4.908508   4.328254   3.719837   4.753368
    26  F    4.603972   5.035052   3.517875   2.907777   4.163367
    27  F    3.306922   3.760602   2.748791   2.888299   4.138884
    28  C    2.397092   3.505091   1.369464   2.434955   3.454853
    29  O    3.502672   4.490764   2.271770   2.735393   3.925199
    30  H    6.765895   7.936480   6.370785   7.525280   8.552743
    31  H    6.755354   7.921876   6.030159   6.924867   8.065771
    32  H    7.017715   8.098322   6.535181   7.512952   8.708503
    33  H    4.803421   5.846583   4.186351   5.074540   6.309966
    34  H    4.818171   5.866233   4.659465   5.860564   6.916175
    35  H    4.708684   5.922105   4.397977   5.685791   6.471589
    36  H    4.697914   5.907179   3.896439   4.874155   5.821934
    37  H    2.571239   2.431769   3.898891   4.846389   4.634857
    38  H    3.298782   3.729479   4.399093   5.668096   5.730495
    39  H    3.666402   4.008064   4.660205   5.842240   6.320451
    40  H    3.027720   2.841251   4.189849   5.048043   5.347153
    41  H    5.308314   5.102517   6.538259   7.486538   7.672194
    42  H    5.120396   5.128610   6.372861   7.501473   7.578585
    43  H    4.680119   4.270409   6.034262   6.895124   6.780372
                   16         17         18         19         20
    16  F    0.000000
    17  C    2.376339   0.000000
    18  F    3.572758   1.364675   0.000000
    19  O    2.843931   1.439073   2.239402   0.000000
    20  C    3.287760   2.379665   2.795894   1.402399   0.000000
    21  F    4.473612   3.506391   3.787667   2.229176   1.347113
    22  F    2.780714   2.973181   3.698425   2.238335   1.343687
    23  F    3.853052   2.625185   2.411992   2.273136   1.340811
    24  C    2.937542   1.524326   2.329811   2.381495   3.674611
    25  F    4.167274   2.377005   2.722351   2.721266   4.061072
    26  F    2.682841   2.394229   3.535389   2.833225   4.119205
    27  F    3.522258   2.388563   2.755158   3.593607   4.753298
    28  C    2.688665   3.443531   4.099335   4.675154   5.370673
    29  O    2.450776   3.534000   4.490446   4.546967   5.405287
    30  H    7.519610   8.211075   8.702793   9.437405  10.372200
    31  H    6.661511   7.534460   8.255620   8.596862   9.609301
    32  H    7.518500   7.878469   8.372124   9.034722  10.140235
    33  H    5.173254   5.413402   5.954396   6.596729   7.677169
    34  H    6.230396   6.313380   6.554930   7.650705   8.604666
    35  H    5.784986   6.696350   7.154621   7.965250   8.648341
    36  H    4.628020   5.858377   6.612631   6.961340   7.728487
    37  H    6.000644   5.514562   4.897953   6.715328   6.729126
    38  H    6.642409   6.477219   6.061353   7.807591   8.014935
    39  H    6.928510   6.106534   5.511905   7.501547   8.048352
    40  H    6.314660   5.073143   4.198718   6.356400   6.769122
    41  H    8.740951   7.528152   6.564818   8.771135   9.110057
    42  H    8.660137   7.900735   7.120455   9.205338   9.446635
    43  H    8.172722   7.124660   6.150590   8.289793   8.372999
                   21         22         23         24         25
    21  F    0.000000
    22  F    2.181810   0.000000
    23  F    2.184093   2.203131   0.000000
    24  C    4.589236   4.226252   4.088858   0.000000
    25  F    4.646357   4.899273   4.488125   1.358991   0.000000
    26  F    4.956569   4.350592   4.847102   1.348755   2.169389
    27  F    5.777957   5.247900   4.896886   1.354581   2.168645
    28  C    6.657413   5.212985   5.450670   3.328655   4.629054
    29  O    6.594070   5.180935   5.774847   3.099229   4.373217
    30  H   11.585524  10.238661  10.486062   7.409589   8.300855
    31  H   10.742261   9.419830   9.938919   6.606414   7.483161
    32  H   11.250690  10.171380  10.351068   6.809262   7.471671
    33  H    8.806086   7.748965   7.883717   4.421346   5.242771
    34  H    9.808112   8.717411   8.557114   5.540729   6.345970
    35  H    9.949286   8.388777   8.620356   6.330479   7.473954
    36  H    8.965316   7.378966   7.955542   5.380465   6.565720
    37  H    7.927200   6.915764   5.811067   6.200733   7.059098
    38  H    9.282951   8.096638   7.263320   6.852180   7.790016
    39  H    9.216262   8.468176   7.378441   6.049955   6.661229
    40  H    7.849408   7.347364   5.955224   5.298940   5.787779
    41  H   10.123839   9.711831   8.170483   7.699217   8.057270
    42  H   10.580640   9.819184   8.517292   8.176830   8.793001
    43  H    9.402437   8.861439   7.306877   7.632669   8.145013
                   26         27         28         29         30
    26  F    0.000000
    27  F    2.190024   0.000000
    28  C    3.406987   2.757685   0.000000
    29  O    2.699042   2.783709   1.230008   0.000000
    30  H    7.179427   6.347956   5.117597   5.117534   0.000000
    31  H    6.096055   5.762814   4.676080   4.258141   1.774896
    32  H    6.547510   5.754532   5.302891   5.080247   1.771948
    33  H    4.265896   3.381993   3.021066   2.812885   3.065515
    34  H    5.696044   4.296228   3.662081   3.986781   2.505328
    35  H    6.263805   5.370735   3.299630   3.732706   2.566515
    36  H    4.999703   4.674782   2.572051   2.439451   3.113341
    37  H    7.122374   5.541271   4.697282   5.905149   7.891208
    38  H    7.613602   5.936644   4.706914   5.918379   6.702763
    39  H    6.972604   4.896862   4.815984   5.846271   6.295436
    40  H    6.430459   4.406656   4.804248   5.830356   7.544739
    41  H    8.827898   6.721533   7.017155   8.080676   8.663188
    42  H    9.167882   7.172684   6.763967   7.923940   8.160048
    43  H    8.758759   6.844270   6.755581   7.912133   9.167287
                   31         32         33         34         35
    31  H    0.000000
    32  H    1.771932   0.000000
    33  H    2.505295   2.472203   0.000000
    34  H    3.065460   2.472092   1.758203   0.000000
    35  H    3.117960   3.760669   3.073896   2.518775   0.000000
    36  H    2.564174   3.759129   2.521770   3.073839   1.761402
    37  H    8.391381   8.413628   6.614490   5.973682   5.782203
    38  H    7.502016   7.444887   6.056858   5.043800   4.705205
    39  H    7.059489   6.480039   5.171689   4.079023   5.063103
    40  H    7.994632   7.569379   5.811191   5.181186   6.074108
    41  H    9.506769   8.800308   7.563699   6.482724   7.461145
    42  H    9.163549   8.651621   7.530678   6.284162   6.710643
    43  H    9.908611   9.502545   7.987524   7.056383   7.509900
                   36         37         38         39         40
    36  H    0.000000
    37  H    6.447049   0.000000
    38  H    5.782646   1.760997   0.000000
    39  H    5.983721   3.073512   2.519054   0.000000
    40  H    6.625067   2.520669   3.073446   1.758421   0.000000
    41  H    8.422943   3.759279   3.760073   2.472321   2.472394
    42  H    7.895332   3.114189   2.565822   2.505352   3.065581
    43  H    8.396387   2.564570   3.116634   3.065560   2.505327
                   41         42         43
    41  H    0.000000
    42  H    1.771945   0.000000
    43  H    1.771938   1.774883   0.000000
 Symmetry turned off by external request.
 Stoichiometry    C13H14F9N3O4
 Framework group  C1[X(C13H14F9N3O4)]
 Deg. of freedom   123
 Full point group                 C1      NOp   1
 Rotational constants (GHZ):      0.2509602      0.1264017      0.1031694
 Leave Link  202 at Sun Mar  3 18:05:01 2024, MaxMem=  5368709120 cpu:         0.1
 (Enter /home/k0335/k033513/app/g09/l301.exe)
 Standard basis: 6-31G(d,p) (6D, 7F)
 Ernie: Thresh=  0.10000D-02 Tol=  0.10000D-05 Strict=F.
   505 basis functions,   910 primitive gaussians,   505 cartesian basis functions
   113 alpha electrons      113 beta electrons
       nuclear repulsion energy      3535.9559090453 Hartrees.
 IExCor=20419 DFT=T Ex+Corr=CAM-B3LYP ExCW=0 ScaHFX=  1.000000
 ScaDFX=  1.000000  1.000000  1.000000  0.810000 ScalE2=  1.000000  1.000000
 IRadAn=      0 IRanWt=     -1 IRanGd=            0 ICorTp=0 IEmpDi=  4
  HFx wShort=  0.000000 wLong=  0.330000 cFull=  0.190000 cShort=  0.000000 cLong=  0.460000
  DFx wShort=  0.000000 wLong=  0.330000 cFull=  0.190000 cShort=  0.000000 cLong=  0.460000
 NAtoms=   43 NActive=   43 NUniq=   43 SFac= 1.00D+00 NAtFMM=   60 NAOKFM=F Big=F
 Integral buffers will be    131072 words long.
 Raffenetti 2 integral format.
 Two-electron integral symmetry is turned off.
 Using the following non-standard input for PCM:
 eps=4.9
 --- end of non-standard input.
 ------------------------------------------------------------------------------
 Polarizable Continuum Model (PCM)
 =================================
 Model                : PCM (using non-symmetric T matrix).
 Atomic radii         : UFF (Universal Force Field).
 Polarization charges : Total charges.
 Charge compensation  : None.
 Solution method      : On-the-fly selection.
 Cavity type          : Scaled VdW (van der Waals Surface) (Alpha=1.100).
 Cavity algorithm     : GePol (No added spheres)
                        Default sphere list used, NSphG=   43.
                        Lebedev-Laikov grids with approx.  5.0 points / Ang**2.
                        Smoothing algorithm: Karplus/York (Gamma=1.0000).
                        Polarization charges: spherical gaussians, with
                                              point-specific exponents (IZeta= 3).
                        Self-potential: point-specific (ISelfS= 7).
                        Self-field    : sphere-specific E.n sum rule (ISelfD= 2).
 Solvent              : Generic,
                        Eps                           =   4.900000
                        Eps(infinity)                 =   0.000000
                        RSolv                         =   0.000000 Ang.
                        Molar volume                  =   0.000000 cm**3/mol
                        Thermal expansion coefficient =   0.000000 K**-1
                        Absolute temperature          = 298.150000 K
                        Numeral density               =   0.000000 Ang**-3
                        Hydrogen bond acidity         =   0.000000
                        Hydrogen bond basicity        =   0.000000
                        Surface tension at interface  =   0.000000 (cal/mol)*Ang**-2
                        Carbon aromaticity            =   0.000000
                        Electronegative halogenicity  =   0.000000
 ------------------------------------------------------------------------------
 GePol: Number of generator spheres                  =      43
 GePol: Total number of spheres                      =      43
 GePol: Number of exposed spheres                    =      43 (100.00%)
 GePol: Number of points                             =    3196
 GePol: Average weight of points                     =       0.13
 GePol: Minimum weight of points                     =   0.24D-09
 GePol: Maximum weight of points                     =    0.20577
 GePol: Number of points with low weight             =     154
 GePol: Fraction of low-weight points (<1% of avg)   =       4.82%
 GePol: Cavity surface area                          =    409.270 Ang**2
 GePol: Cavity volume                                =    461.583 Ang**3
 Leave Link  301 at Sun Mar  3 18:05:01 2024, MaxMem=  5368709120 cpu:         0.8
 (Enter /home/k0335/k033513/app/g09/l302.exe)
 NPDir=0 NMtPBC=     1 NCelOv=     1 NCel=       1 NClECP=     1 NCelD=      1
         NCelK=      1 NCelE2=     1 NClLst=     1 CellRange=     0.0.
 One-electron integrals computed using PRISM.
 NBasis=   505 RedAO= T EigKep=  1.24D-03  NBF=   505
 NBsUse=   505 1.00D-06 EigRej= -1.00D+00 NBFU=   505
 Precomputing XC quadrature grid using
 IXCGrd= 4 IRadAn=           0 IRanWt=          -1 IRanGd=           0 AccXCQ= 0.00D+00.
 Generated NRdTot=       0 NPtTot=           0 NUsed=           0 NTot=          32
 NSgBfM=   494   494   494   494   494 MxSgAt=    43 MxSgA2=    43.
 Leave Link  302 at Sun Mar  3 18:05:01 2024, MaxMem=  5368709120 cpu:         9.2
 (Enter /home/k0335/k033513/app/g09/l303.exe)
 DipDrv:  MaxL=1.
 Leave Link  303 at Sun Mar  3 18:05:01 2024, MaxMem=  5368709120 cpu:         0.7
 (Enter /home/k0335/k033513/app/g09/l401.exe)
 ExpMin= 1.61D-01 ExpMax= 7.00D+03 ExpMxC= 1.05D+03 IAcc=1 IRadAn=         1 AccDes= 0.00D+00
 Harris functional with IExCor=20419 and IRadAn=       1 diagonalized for initial guess.
 HarFok:  IExCor=20419 AccDes= 0.00D+00 IRadAn=         1 IDoV= 1 UseB2=F ITyADJ=14
 ICtDFT=  3500011 ScaDFX=  1.000000  1.000000  1.000000  1.000000
 FoFCou: FMM=F IPFlag=           0 FMFlag=      100000 FMFlg1=           0
         NFxFlg=           0 DoJE=T BraDBF=F KetDBF=T FulRan=T
         wScrn=  0.000000 ICntrl=     500 IOpCl=  0 I1Cent=   200000004 NGrid=           0
         NMat0=    1 NMatS0=      1 NMatT0=    0 NMatD0=    1 NMtDS0=    0 NMtDT0=    0
 Symmetry not used in FoFCou.
 Harris En= -1807.21229312733    
 JPrj=0 DoOrth=F DoCkMO=F.
 Leave Link  401 at Sun Mar  3 18:05:02 2024, MaxMem=  5368709120 cpu:        10.4
 (Enter /home/k0335/k033513/app/g09/l502.exe)
 Closed shell SCF:
 Using DIIS extrapolation, IDIIS=  1040.
 Two-electron integral symmetry not used.
 IVT=      798861 IEndB=      798861 NGot=  5368709120 MDV=  5368182430
 LenX=  5368182430 LenY=  5367926900
 Requested convergence on RMS density matrix=1.00D-08 within 128 cycles.
 Requested convergence on MAX density matrix=1.00D-06.
 Requested convergence on             energy=1.00D-06.
 No special actions if energy rises.
 Fock matrices will be formed incrementally for  20 cycles.

 Cycle   1  Pass 1  IDiag  1:
 FoFJK:  IHMeth= 1 ICntrl=       0 DoSepK=T KAlg= 0 I1Cent=   0 FoldK=F
 IRaf=         1 NMat=   1 IRICut=       1 DoRegI=T DoRafI=F ISym2E= 0.
 FoFCou: FMM=F IPFlag=           0 FMFlag=      100000 FMFlg1=           0
         NFxFlg=           0 DoJE=T BraDBF=F KetDBF=F FulRan=T
         wScrn=  0.000000 ICntrl=     500 IOpCl=  0 I1Cent=           0 NGrid=           0
         NMat0=    1 NMatS0=      1 NMatT0=    0 NMatD0=    1 NMtDS0=    0 NMtDT0=    0
 Symmetry not used in FoFCou.
 Inv3:  Mode=1 IEnd=    30643248.
 Iteration    1 A*A^-1 deviation from unit magnitude is 5.33D-15 for   3194.
 Iteration    1 A*A^-1 deviation from orthogonality  is 3.71D-15 for   1359   1265.
 Iteration    1 A^-1*A deviation from unit magnitude is 5.55D-15 for   3171.
 Iteration    1 A^-1*A deviation from orthogonality  is 3.63D-11 for   2885   2865.
 E= -1866.36035012133    
 DIIS: error= 6.29D-02 at cycle   1 NSaved=   1.
 NSaved= 1 IEnMin= 1 EnMin= -1866.36035012133     IErMin= 1 ErrMin= 6.29D-02
 ErrMax= 6.29D-02  0.00D+00 EMaxC= 1.00D-01 BMatC= 1.55D+00 BMatP= 1.55D+00
 IDIUse=3 WtCom= 3.71D-01 WtEn= 6.29D-01
 Coeff-Com:  0.100D+01
 Coeff-En:   0.100D+01
 Coeff:      0.100D+01
 Gap=     0.457 Goal=   None    Shift=    0.000
 GapD=    0.457 DampG=2.000 DampE=0.500 DampFc=1.0000 IDamp=-1.
 RMSDP=3.17D-03 MaxDP=1.39D-01              OVMax= 1.87D-01

 Cycle   2  Pass 1  IDiag  1:
 RMSU=  3.17D-03    CP:  1.00D+00
 E= -1866.53000632670     Delta-E=       -0.169656205368 Rises=F Damp=F
 DIIS: error= 1.82D-02 at cycle   2 NSaved=   2.
 NSaved= 2 IEnMin= 2 EnMin= -1866.53000632670     IErMin= 2 ErrMin= 1.82D-02
 ErrMax= 1.82D-02  0.00D+00 EMaxC= 1.00D-01 BMatC= 6.53D-01 BMatP= 1.55D+00
 IDIUse=3 WtCom= 8.18D-01 WtEn= 1.82D-01
 Coeff-Com:  0.370D+00 0.630D+00
 Coeff-En:   0.403D+00 0.597D+00
 Coeff:      0.376D+00 0.624D+00
 Gap=     0.436 Goal=   None    Shift=    0.000
 RMSDP=1.82D-03 MaxDP=1.27D-01 DE=-1.70D-01 OVMax= 1.31D-01

 Cycle   3  Pass 1  IDiag  1:
 RMSU=  1.11D-03    CP:  1.00D+00  5.44D-01
 E= -1866.85363133527     Delta-E=       -0.323625008577 Rises=F Damp=F
 DIIS: error= 1.30D-02 at cycle   3 NSaved=   3.
 NSaved= 3 IEnMin= 3 EnMin= -1866.85363133527     IErMin= 3 ErrMin= 1.30D-02
 ErrMax= 1.30D-02  0.00D+00 EMaxC= 1.00D-01 BMatC= 1.83D-01 BMatP= 6.53D-01
 IDIUse=3 WtCom= 8.70D-01 WtEn= 1.30D-01
 Coeff-Com:  0.106D+00 0.354D+00 0.540D+00
 Coeff-En:   0.000D+00 0.220D+00 0.780D+00
 Coeff:      0.923D-01 0.337D+00 0.571D+00
 Gap=     0.380 Goal=   None    Shift=    0.000
 RMSDP=8.40D-04 MaxDP=5.97D-02 DE=-3.24D-01 OVMax= 8.81D-02

 Cycle   4  Pass 1  IDiag  1:
 RMSU=  3.69D-04    CP:  1.00D+00  6.73D-01  4.29D-01
 E= -1866.97401895326     Delta-E=       -0.120387617991 Rises=F Damp=F
 DIIS: error= 4.42D-03 at cycle   4 NSaved=   4.
 NSaved= 4 IEnMin= 4 EnMin= -1866.97401895326     IErMin= 4 ErrMin= 4.42D-03
 ErrMax= 4.42D-03  0.00D+00 EMaxC= 1.00D-01 BMatC= 1.85D-02 BMatP= 1.83D-01
 IDIUse=3 WtCom= 9.56D-01 WtEn= 4.42D-02
 Coeff-Com:  0.662D-02 0.966D-01 0.297D+00 0.600D+00
 Coeff-En:   0.000D+00 0.000D+00 0.509D-01 0.949D+00
 Coeff:      0.633D-02 0.923D-01 0.286D+00 0.616D+00
 Gap=     0.368 Goal=   None    Shift=    0.000
 RMSDP=2.46D-04 MaxDP=1.76D-02 DE=-1.20D-01 OVMax= 2.03D-02

 Cycle   5  Pass 1  IDiag  1:
 RMSU=  1.00D-04    CP:  1.00D+00  6.63D-01  5.93D-01  6.54D-01
 E= -1866.98645804269     Delta-E=       -0.012439089425 Rises=F Damp=F
 DIIS: error= 6.28D-04 at cycle   5 NSaved=   5.
 NSaved= 5 IEnMin= 5 EnMin= -1866.98645804269     IErMin= 5 ErrMin= 6.28D-04
 ErrMax= 6.28D-04  0.00D+00 EMaxC= 1.00D-01 BMatC= 8.74D-04 BMatP= 1.85D-02
 IDIUse=3 WtCom= 9.94D-01 WtEn= 6.28D-03
 Coeff-Com: -0.144D-02 0.278D-01 0.111D+00 0.309D+00 0.553D+00
 Coeff-En:   0.000D+00 0.000D+00 0.000D+00 0.000D+00 0.100D+01
 Coeff:     -0.143D-02 0.276D-01 0.111D+00 0.307D+00 0.556D+00
 Gap=     0.363 Goal=   None    Shift=    0.000
 RMSDP=4.95D-05 MaxDP=2.67D-03 DE=-1.24D-02 OVMax= 3.95D-03

 Cycle   6  Pass 1  IDiag  1:
 RMSU=  2.83D-05    CP:  1.00D+00  6.67D-01  5.82D-01  6.94D-01  6.67D-01
 E= -1866.98707967969     Delta-E=       -0.000621637002 Rises=F Damp=F
 DIIS: error= 1.38D-04 at cycle   6 NSaved=   6.
 NSaved= 6 IEnMin= 6 EnMin= -1866.98707967969     IErMin= 6 ErrMin= 1.38D-04
 ErrMax= 1.38D-04  0.00D+00 EMaxC= 1.00D-01 BMatC= 3.12D-05 BMatP= 8.74D-04
 IDIUse=3 WtCom= 9.99D-01 WtEn= 1.38D-03
 Coeff-Com: -0.913D-03-0.500D-03 0.643D-02 0.385D-01 0.189D+00 0.767D+00
 Coeff-En:   0.000D+00 0.000D+00 0.000D+00 0.000D+00 0.000D+00 0.100D+01
 Coeff:     -0.912D-03-0.500D-03 0.642D-02 0.385D-01 0.189D+00 0.768D+00
 Gap=     0.363 Goal=   None    Shift=    0.000
 RMSDP=1.33D-05 MaxDP=7.90D-04 DE=-6.22D-04 OVMax= 9.00D-04

 Cycle   7  Pass 1  IDiag  1:
 RMSU=  9.14D-06    CP:  1.00D+00  6.67D-01  5.86D-01  7.07D-01  7.31D-01
                    CP:  9.08D-01
 E= -1866.98710344388     Delta-E=       -0.000023764187 Rises=F Damp=F
 DIIS: error= 5.62D-05 at cycle   7 NSaved=   7.
 NSaved= 7 IEnMin= 7 EnMin= -1866.98710344388     IErMin= 7 ErrMin= 5.62D-05
 ErrMax= 5.62D-05  0.00D+00 EMaxC= 1.00D-01 BMatC= 4.65D-06 BMatP= 3.12D-05
 IDIUse=1 WtCom= 1.00D+00 WtEn= 0.00D+00
 Coeff-Com: -0.146D-03-0.307D-02-0.824D-02-0.140D-01 0.318D-01 0.340D+00
 Coeff-Com:  0.654D+00
 Coeff:     -0.146D-03-0.307D-02-0.824D-02-0.140D-01 0.318D-01 0.340D+00
 Coeff:      0.654D+00
 Gap=     0.363 Goal=   None    Shift=    0.000
 RMSDP=4.25D-06 MaxDP=2.31D-04 DE=-2.38D-05 OVMax= 3.20D-04

 Cycle   8  Pass 1  IDiag  1:
 RMSU=  2.56D-06    CP:  1.00D+00  6.67D-01  5.86D-01  7.07D-01  7.48D-01
                    CP:  9.91D-01  8.16D-01
 E= -1866.98710774502     Delta-E=       -0.000004301146 Rises=F Damp=F
 DIIS: error= 7.72D-06 at cycle   8 NSaved=   8.
 NSaved= 8 IEnMin= 8 EnMin= -1866.98710774502     IErMin= 8 ErrMin= 7.72D-06
 ErrMax= 7.72D-06  0.00D+00 EMaxC= 1.00D-01 BMatC= 1.70D-07 BMatP= 4.65D-06
 IDIUse=1 WtCom= 1.00D+00 WtEn= 0.00D+00
 Coeff-Com:  0.843D-05-0.864D-03-0.262D-02-0.690D-02-0.532D-02 0.310D-01
 Coeff-Com:  0.154D+00 0.831D+00
 Coeff:      0.843D-05-0.864D-03-0.262D-02-0.690D-02-0.532D-02 0.310D-01
 Coeff:      0.154D+00 0.831D+00
 Gap=     0.363 Goal=   None    Shift=    0.000
 RMSDP=1.37D-06 MaxDP=1.09D-04 DE=-4.30D-06 OVMax= 1.65D-04

 Cycle   9  Pass 1  IDiag  1:
 RMSU=  8.72D-07    CP:  1.00D+00  6.67D-01  5.87D-01  7.07D-01  7.52D-01
                    CP:  1.01D+00  8.83D-01  1.10D+00
 E= -1866.98710794442     Delta-E=       -0.000000199398 Rises=F Damp=F
 DIIS: error= 5.28D-06 at cycle   9 NSaved=   9.
 NSaved= 9 IEnMin= 9 EnMin= -1866.98710794442     IErMin= 9 ErrMin= 5.28D-06
 ErrMax= 5.28D-06  0.00D+00 EMaxC= 1.00D-01 BMatC= 4.60D-08 BMatP= 1.70D-07
 IDIUse=1 WtCom= 1.00D+00 WtEn= 0.00D+00
 Coeff-Com:  0.210D-04 0.100D-03 0.225D-03-0.869D-03-0.733D-02-0.413D-01
 Coeff-Com: -0.344D-01 0.378D+00 0.705D+00
 Coeff:      0.210D-04 0.100D-03 0.225D-03-0.869D-03-0.733D-02-0.413D-01
 Coeff:     -0.344D-01 0.378D+00 0.705D+00
 Gap=     0.363 Goal=   None    Shift=    0.000
 RMSDP=5.71D-07 MaxDP=4.62D-05 DE=-1.99D-07 OVMax= 6.77D-05

 Cycle  10  Pass 1  IDiag  1:
 RMSU=  3.16D-07    CP:  1.00D+00  6.67D-01  5.87D-01  7.07D-01  7.53D-01
                    CP:  1.02D+00  9.05D-01  1.22D+00  9.31D-01
 E= -1866.98710798748     Delta-E=       -0.000000043062 Rises=F Damp=F
 DIIS: error= 1.36D-06 at cycle  10 NSaved=  10.
 NSaved=10 IEnMin=10 EnMin= -1866.98710798748     IErMin=10 ErrMin= 1.36D-06
 ErrMax= 1.36D-06  0.00D+00 EMaxC= 1.00D-01 BMatC= 3.11D-09 BMatP= 4.60D-08
 IDIUse=1 WtCom= 1.00D+00 WtEn= 0.00D+00
 Coeff-Com:  0.737D-05 0.110D-03 0.328D-03 0.269D-03-0.192D-02-0.171D-01
 Coeff-Com: -0.251D-01 0.628D-01 0.253D+00 0.728D+00
 Coeff:      0.737D-05 0.110D-03 0.328D-03 0.269D-03-0.192D-02-0.171D-01
 Coeff:     -0.251D-01 0.628D-01 0.253D+00 0.728D+00
 Gap=     0.363 Goal=   None    Shift=    0.000
 RMSDP=1.63D-07 MaxDP=1.27D-05 DE=-4.31D-08 OVMax= 2.04D-05

 Cycle  11  Pass 1  IDiag  1:
 RMSU=  1.08D-07    CP:  1.00D+00  6.67D-01  5.87D-01  7.07D-01  7.54D-01
                    CP:  1.02D+00  9.10D-01  1.24D+00  9.99D-01  9.30D-01
 E= -1866.98710799026     Delta-E=       -0.000000002780 Rises=F Damp=F
 DIIS: error= 9.06D-07 at cycle  11 NSaved=  11.
 NSaved=11 IEnMin=11 EnMin= -1866.98710799026     IErMin=11 ErrMin= 9.06D-07
 ErrMax= 9.06D-07  0.00D+00 EMaxC= 1.00D-01 BMatC= 5.86D-10 BMatP= 3.11D-09
 IDIUse=1 WtCom= 1.00D+00 WtEn= 0.00D+00
 Coeff-Com:  0.175D-05 0.442D-04 0.145D-03 0.211D-03-0.114D-03-0.420D-02
 Coeff-Com: -0.883D-02-0.845D-02 0.477D-01 0.341D+00 0.632D+00
 Coeff:      0.175D-05 0.442D-04 0.145D-03 0.211D-03-0.114D-03-0.420D-02
 Coeff:     -0.883D-02-0.845D-02 0.477D-01 0.341D+00 0.632D+00
 Gap=     0.363 Goal=   None    Shift=    0.000
 RMSDP=5.71D-08 MaxDP=5.63D-06 DE=-2.78D-09 OVMax= 6.03D-06

 Cycle  12  Pass 1  IDiag  1:
 RMSU=  3.61D-08    CP:  1.00D+00  6.67D-01  5.87D-01  7.07D-01  7.54D-01
                    CP:  1.02D+00  9.11D-01  1.25D+00  1.01D+00  1.02D+00
                    CP:  8.63D-01
 E= -1866.98710799083     Delta-E=       -0.000000000563 Rises=F Damp=F
 DIIS: error= 2.69D-07 at cycle  12 NSaved=  12.
 NSaved=12 IEnMin=12 EnMin= -1866.98710799083     IErMin=12 ErrMin= 2.69D-07
 ErrMax= 2.69D-07  0.00D+00 EMaxC= 1.00D-01 BMatC= 8.06D-11 BMatP= 5.86D-10
 IDIUse=1 WtCom= 1.00D+00 WtEn= 0.00D+00
 Coeff-Com: -0.312D-06 0.414D-05 0.235D-04 0.603D-04 0.301D-03 0.719D-03
 Coeff-Com: -0.145D-03-0.134D-01-0.175D-01 0.410D-01 0.284D+00 0.705D+00
 Coeff:     -0.312D-06 0.414D-05 0.235D-04 0.603D-04 0.301D-03 0.719D-03
 Coeff:     -0.145D-03-0.134D-01-0.175D-01 0.410D-01 0.284D+00 0.705D+00
 Gap=     0.363 Goal=   None    Shift=    0.000
 RMSDP=2.22D-08 MaxDP=1.98D-06 DE=-5.63D-10 OVMax= 2.35D-06

 Cycle  13  Pass 1  IDiag  1:
 RMSU=  1.18D-08    CP:  1.00D+00  6.67D-01  5.87D-01  7.07D-01  7.54D-01
                    CP:  1.02D+00  9.11D-01  1.25D+00  1.02D+00  1.04D+00
                    CP:  9.51D-01  8.35D-01
 E= -1866.98710799076     Delta-E=        0.000000000068 Rises=F Damp=F
 DIIS: error= 8.27D-08 at cycle  13 NSaved=  13.
 NSaved=13 IEnMin=12 EnMin= -1866.98710799083     IErMin=13 ErrMin= 8.27D-08
 ErrMax= 8.27D-08  0.00D+00 EMaxC= 1.00D-01 BMatC= 7.92D-12 BMatP= 8.06D-11
 IDIUse=1 WtCom= 1.00D+00 WtEn= 0.00D+00
 Coeff-Com: -0.306D-06-0.279D-05-0.326D-05 0.404D-05 0.151D-03 0.735D-03
 Coeff-Com:  0.871D-03-0.465D-02-0.122D-01-0.200D-01 0.467D-01 0.287D+00
 Coeff-Com:  0.701D+00
 Coeff:     -0.306D-06-0.279D-05-0.326D-05 0.404D-05 0.151D-03 0.735D-03
 Coeff:      0.871D-03-0.465D-02-0.122D-01-0.200D-01 0.467D-01 0.287D+00
 Coeff:      0.701D+00
 Gap=     0.363 Goal=   None    Shift=    0.000
 RMSDP=6.96D-09 MaxDP=4.47D-07 DE= 6.82D-11 OVMax= 7.28D-07

 Error on total polarization charges =  0.00571
 SCF Done:  E(RCAM-B3LYP) =  -1866.98710799     A.U. after   13 cycles
            NFock= 13  Conv=0.70D-08     -V/T= 2.0078
 KE= 1.852514452118D+03 PE=-1.146834188665D+04 EE= 4.212884417491D+03
 Leave Link  502 at Sun Mar  3 18:05:41 2024, MaxMem=  5368709120 cpu:       875.2
 (Enter /home/k0335/k033513/app/g09/l601.exe)
 Copying SCF densities to generalized density rwf, IOpCl= 0 IROHF=0.

 **********************************************************************

            Population analysis using the SCF density.

 **********************************************************************

 Alpha  occ. eigenvalues --  -24.84016 -24.83251 -24.83051 -24.82876 -24.82685
 Alpha  occ. eigenvalues --  -24.82598 -24.82513 -24.82452 -24.81856 -19.32665
 Alpha  occ. eigenvalues --  -19.23092 -19.22878 -19.22595 -14.52272 -14.49431
 Alpha  occ. eigenvalues --  -14.49395 -10.59125 -10.55148 -10.53150 -10.48721
 Alpha  occ. eigenvalues --  -10.44908 -10.44842 -10.43777 -10.30943 -10.30932
 Alpha  occ. eigenvalues --  -10.26206 -10.26162 -10.25030 -10.25010  -1.42649
 Alpha  occ. eigenvalues --   -1.41677  -1.38508  -1.35279  -1.33040  -1.32931
 Alpha  occ. eigenvalues --   -1.32616  -1.31838  -1.31031  -1.21666  -1.20044
 Alpha  occ. eigenvalues --   -1.16629  -1.16302  -1.08648  -1.06375  -1.04840
 Alpha  occ. eigenvalues --   -0.93300  -0.88857  -0.87462  -0.84576  -0.80969
 Alpha  occ. eigenvalues --   -0.80536  -0.80349  -0.78366  -0.75045  -0.75014
 Alpha  occ. eigenvalues --   -0.72743  -0.72455  -0.71587  -0.70208  -0.69336
 Alpha  occ. eigenvalues --   -0.68891  -0.68017  -0.67638  -0.67514  -0.67233
 Alpha  occ. eigenvalues --   -0.65410  -0.64042  -0.61449  -0.59895  -0.58972
 Alpha  occ. eigenvalues --   -0.56955  -0.56579  -0.56297  -0.56076  -0.55935
 Alpha  occ. eigenvalues --   -0.55295  -0.54877  -0.54561  -0.54341  -0.54124
 Alpha  occ. eigenvalues --   -0.53617  -0.53487  -0.52836  -0.52669  -0.52376
 Alpha  occ. eigenvalues --   -0.51929  -0.51764  -0.51351  -0.51081  -0.50564
 Alpha  occ. eigenvalues --   -0.50253  -0.49934  -0.49409  -0.48757  -0.48563
 Alpha  occ. eigenvalues --   -0.48284  -0.47800  -0.45742  -0.45560  -0.45473
 Alpha  occ. eigenvalues --   -0.44344  -0.43717  -0.43679  -0.42008  -0.41862
 Alpha  occ. eigenvalues --   -0.40159  -0.39883  -0.38970  -0.38646  -0.37672
 Alpha  occ. eigenvalues --   -0.35643  -0.34963  -0.34601
 Alpha virt. eigenvalues --    0.01729   0.02499   0.06460   0.07955   0.11789
 Alpha virt. eigenvalues --    0.13397   0.14662   0.15998   0.16368   0.16917
 Alpha virt. eigenvalues --    0.17840   0.18396   0.19105   0.19199   0.20061
 Alpha virt. eigenvalues --    0.20637   0.21275   0.21507   0.22362   0.22817
 Alpha virt. eigenvalues --    0.23177   0.23210   0.23480   0.23725   0.24418
 Alpha virt. eigenvalues --    0.24550   0.24773   0.25366   0.25965   0.26531
 Alpha virt. eigenvalues --    0.27305   0.28131   0.28316   0.28520   0.29141
 Alpha virt. eigenvalues --    0.29412   0.30490   0.30875   0.31807   0.33376
 Alpha virt. eigenvalues --    0.36951   0.38315   0.39731   0.40708   0.41068
 Alpha virt. eigenvalues --    0.47072   0.48732   0.50830   0.51473   0.52056
 Alpha virt. eigenvalues --    0.53098   0.54069   0.54189   0.55131   0.55412
 Alpha virt. eigenvalues --    0.56729   0.57269   0.57354   0.58697   0.58803
 Alpha virt. eigenvalues --    0.59809   0.59993   0.60306   0.60586   0.61160
 Alpha virt. eigenvalues --    0.62881   0.63064   0.64255   0.65803   0.67650
 Alpha virt. eigenvalues --    0.68195   0.68413   0.69979   0.71327   0.72244
 Alpha virt. eigenvalues --    0.72389   0.73033   0.73527   0.75172   0.76787
 Alpha virt. eigenvalues --    0.77987   0.79182   0.80661   0.83118   0.83866
 Alpha virt. eigenvalues --    0.84916   0.85711   0.86586   0.87076   0.87785
 Alpha virt. eigenvalues --    0.89038   0.89546   0.91527   0.92229   0.92687
 Alpha virt. eigenvalues --    0.92963   0.93601   0.94202   0.94668   0.95296
 Alpha virt. eigenvalues --    0.95841   0.95864   0.96448   0.97279   0.98487
 Alpha virt. eigenvalues --    0.98802   1.00132   1.01028   1.01847   1.02372
 Alpha virt. eigenvalues --    1.03504   1.03536   1.05025   1.06556   1.07014
 Alpha virt. eigenvalues --    1.07320   1.08564   1.10532   1.11300   1.12118
 Alpha virt. eigenvalues --    1.12728   1.14279   1.14437   1.16374   1.17059
 Alpha virt. eigenvalues --    1.17293   1.18803   1.20013   1.20701   1.21496
 Alpha virt. eigenvalues --    1.22228   1.22681   1.23539   1.24093   1.25333
 Alpha virt. eigenvalues --    1.26157   1.26814   1.29614   1.31048   1.31476
 Alpha virt. eigenvalues --    1.32293   1.33893   1.34109   1.34167   1.35201
 Alpha virt. eigenvalues --    1.36864   1.37633   1.38362   1.39747   1.40499
 Alpha virt. eigenvalues --    1.41046   1.41305   1.42084   1.42971   1.43464
 Alpha virt. eigenvalues --    1.44681   1.45776   1.47350   1.48277   1.48436
 Alpha virt. eigenvalues --    1.49448   1.49982   1.50867   1.51916   1.52870
 Alpha virt. eigenvalues --    1.53772   1.54922   1.55526   1.56559   1.57167
 Alpha virt. eigenvalues --    1.57370   1.59589   1.60755   1.61468   1.63570
 Alpha virt. eigenvalues --    1.64058   1.64455   1.67102   1.68202   1.68904
 Alpha virt. eigenvalues --    1.69152   1.70671   1.71362   1.72139   1.73906
 Alpha virt. eigenvalues --    1.75024   1.75701   1.76422   1.77933   1.78122
 Alpha virt. eigenvalues --    1.78760   1.79584   1.80751   1.81550   1.82667
 Alpha virt. eigenvalues --    1.83680   1.85140   1.85566   1.86601   1.86880
 Alpha virt. eigenvalues --    1.87286   1.87865   1.88551   1.89100   1.89356
 Alpha virt. eigenvalues --    1.90056   1.90316   1.90933   1.90965   1.91527
 Alpha virt. eigenvalues --    1.92037   1.92795   1.93586   1.93950   1.94827
 Alpha virt. eigenvalues --    1.95642   1.95946   1.97493   1.98019   1.98497
 Alpha virt. eigenvalues --    1.98566   1.99336   1.99810   2.00198   2.00768
 Alpha virt. eigenvalues --    2.01668   2.02090   2.02220   2.03197   2.03441
 Alpha virt. eigenvalues --    2.04157   2.04310   2.05164   2.05897   2.06791
 Alpha virt. eigenvalues --    2.07797   2.08776   2.10110   2.10240   2.11373
 Alpha virt. eigenvalues --    2.11895   2.12490   2.12678   2.13755   2.14043
 Alpha virt. eigenvalues --    2.15007   2.15980   2.16392   2.17114   2.17715
 Alpha virt. eigenvalues --    2.18176   2.18716   2.19823   2.20207   2.21657
 Alpha virt. eigenvalues --    2.22543   2.23470   2.24545   2.25202   2.26030
 Alpha virt. eigenvalues --    2.26968   2.28717   2.30229   2.30834   2.31263
 Alpha virt. eigenvalues --    2.31711   2.33115   2.33553   2.33809   2.34912
 Alpha virt. eigenvalues --    2.35988   2.36304   2.37056   2.38799   2.40054
 Alpha virt. eigenvalues --    2.40426   2.41928   2.42588   2.45281   2.45733
 Alpha virt. eigenvalues --    2.47264   2.47663   2.48986   2.50533   2.50868
 Alpha virt. eigenvalues --    2.52670   2.54353   2.55126   2.55923   2.56580
 Alpha virt. eigenvalues --    2.58545   2.59667   2.61958   2.62675   2.63432
 Alpha virt. eigenvalues --    2.64089   2.65349   2.67093   2.69187   2.69839
 Alpha virt. eigenvalues --    2.71779   2.72863   2.74370   2.75650   2.76440
 Alpha virt. eigenvalues --    2.76965   2.78749   2.78963   2.79970   2.81082
 Alpha virt. eigenvalues --    2.81717   2.83403   2.84316   2.85287   2.85959
 Alpha virt. eigenvalues --    2.86223   2.88067   2.88944   2.90234   2.90318
 Alpha virt. eigenvalues --    2.91620   2.92910   2.95472   2.96225   2.96992
 Alpha virt. eigenvalues --    2.97460   2.97512   2.98863   2.99048   2.99852
 Alpha virt. eigenvalues --    3.01928   3.03808   3.04424   3.05243   3.05815
 Alpha virt. eigenvalues --    3.07426   3.08442   3.11125   3.11795   3.15365
 Alpha virt. eigenvalues --    3.17966   3.19222   3.21811   3.24644   3.26246
 Alpha virt. eigenvalues --    3.26425   3.29489   3.31619   3.34379   3.35559
 Alpha virt. eigenvalues --    3.38047   3.40270   3.41374   3.41727   3.42354
 Alpha virt. eigenvalues --    3.46643   3.53324   3.55035   3.57337   3.57384
 Alpha virt. eigenvalues --    3.58719   3.64077   3.64814   4.02245   4.15158
 Alpha virt. eigenvalues --    4.18721   4.19899   4.26839   4.30266   4.35615
 Alpha virt. eigenvalues --    4.35933   4.40261   4.41871   4.45724   4.50214
 Alpha virt. eigenvalues --    4.56930   4.57874   4.58883   4.60010   4.69167
 Alpha virt. eigenvalues --    4.73610   4.77658   4.83003   4.83796   4.89189
 Alpha virt. eigenvalues --    4.99865   5.17187   5.37866   5.54196   5.87739
 Alpha virt. eigenvalues --    6.24276   6.37750
          Condensed to atoms (all electrons):
               1          2          3          4          5          6
     1  C    4.897248   0.367396  -0.044215   0.003551  -0.000079  -0.000031
     2  C    0.367396   4.906119   0.371805  -0.047315  -0.002441  -0.003277
     3  C   -0.044215   0.371805   4.824922   0.242901  -0.023741   0.001172
     4  N    0.003551  -0.047315   0.242901   7.309297   0.256552  -0.089980
     5  C   -0.000079  -0.002441  -0.023741   0.256552   4.152689   0.591142
     6  O   -0.000031  -0.003277   0.001172  -0.089980   0.591142   8.092928
     7  N    0.000000  -0.000234   0.003339  -0.095959   0.256169  -0.089959
     8  C    0.000000   0.000007  -0.000055   0.003331  -0.023621   0.001061
     9  C    0.000000  -0.000005   0.000008  -0.000224  -0.002459  -0.003152
    10  C    0.000000   0.000000   0.000000   0.000000  -0.000074  -0.000031
    11  C    0.000000   0.000001   0.000042  -0.004781  -0.018898   0.000339
    12  O    0.000000   0.000000   0.000002   0.000139   0.000161  -0.000025
    13  N    0.000000  -0.000231   0.003226  -0.093794  -0.001918   0.000061
    14  C    0.000000   0.000005  -0.000017   0.001590   0.000310   0.000001
    15  F    0.000000   0.000000   0.000000  -0.000029   0.000006   0.000000
    16  F    0.000000   0.000000   0.000007   0.000036   0.000004   0.000000
    17  C    0.000000  -0.000001   0.000000  -0.000105   0.000027   0.000000
    18  F    0.000000   0.000000   0.000000   0.000000   0.000001   0.000000
    19  O    0.000000   0.000000   0.000000   0.000000   0.000000   0.000000
    20  C    0.000000   0.000000   0.000000   0.000000   0.000000   0.000000
    21  F    0.000000   0.000000   0.000000   0.000000   0.000000   0.000000
    22  F    0.000000   0.000000   0.000000   0.000000   0.000000   0.000000
    23  F    0.000000   0.000000   0.000000   0.000000   0.000000   0.000000
    24  C    0.000000  -0.000003   0.000001  -0.000141   0.000006   0.000000
    25  F    0.000000   0.000000   0.000000   0.000000   0.000000   0.000000
    26  F    0.000000  -0.000001   0.000000  -0.000004   0.000000   0.000000
    27  F    0.000001  -0.000076  -0.000021  -0.001229   0.000318   0.000000
    28  C   -0.000031  -0.003405  -0.025877   0.257926  -0.018470   0.000379
    29  O   -0.000041  -0.002971   0.001297  -0.090380   0.000186  -0.000024
    30  H    0.392306  -0.036977  -0.005041   0.000055  -0.000027   0.000013
    31  H    0.392566  -0.036776  -0.005195   0.000054   0.000011  -0.000002
    32  H    0.387886  -0.027357   0.004116  -0.000120  -0.000003   0.000000
    33  H   -0.032810   0.390080  -0.036577  -0.005663  -0.000205   0.000072
    34  H   -0.033284   0.390063  -0.036602  -0.005560   0.004775   0.004097
    35  H   -0.001072  -0.038491   0.387005  -0.033060  -0.004617   0.008603
    36  H   -0.001160  -0.038487   0.387082  -0.032982   0.004336   0.000514
    37  H    0.000000   0.000000   0.000001  -0.000102   0.004289   0.000514
    38  H    0.000000   0.000001  -0.000008   0.000386  -0.004485   0.008703
    39  H    0.000000   0.000002   0.000002  -0.000090   0.004673   0.003980
    40  H    0.000000   0.000000   0.000000   0.000000  -0.000151   0.000066
    41  H    0.000000   0.000000   0.000000   0.000000  -0.000003   0.000000
    42  H    0.000000   0.000000   0.000000   0.000000  -0.000027   0.000012
    43  H    0.000000   0.000000   0.000000   0.000000   0.000011  -0.000002
               7          8          9         10         11         12
     1  C    0.000000   0.000000   0.000000   0.000000   0.000000   0.000000
     2  C   -0.000234   0.000007  -0.000005   0.000000   0.000001   0.000000
     3  C    0.003339  -0.000055   0.000008   0.000000   0.000042   0.000002
     4  N   -0.095959   0.003331  -0.000224   0.000000  -0.004781   0.000139
     5  C    0.256169  -0.023621  -0.002459  -0.000074  -0.018898   0.000161
     6  O   -0.089959   0.001061  -0.003152  -0.000031   0.000339  -0.000025
     7  N    7.303105   0.242581  -0.047559   0.003556   0.263961  -0.090601
     8  C    0.242581   4.826519   0.372052  -0.044330  -0.025547   0.000871
     9  C   -0.047559   0.372052   4.903332   0.367989  -0.003227  -0.002924
    10  C    0.003556  -0.044330   0.367989   4.896876  -0.000042  -0.000035
    11  C    0.263961  -0.025547  -0.003227  -0.000042   4.184734   0.572369
    12  O   -0.090601   0.000871  -0.002924  -0.000035   0.572369   8.106031
    13  N   -0.093533   0.003053  -0.000219   0.000000   0.203279  -0.090467
    14  C    0.001927  -0.000039   0.000008   0.000000  -0.013710   0.016548
    15  F   -0.000012   0.000006   0.000000   0.000000   0.007630  -0.007956
    16  F   -0.000021   0.000000   0.000000   0.000000   0.000618   0.000012
    17  C   -0.000284   0.000004  -0.000002   0.000000  -0.002412  -0.001138
    18  F    0.000018   0.000003  -0.000002   0.000000   0.007173  -0.005479
    19  O    0.000000   0.000000   0.000000   0.000000   0.000139  -0.000007
    20  C    0.000000   0.000000   0.000000   0.000000  -0.000048  -0.000041
    21  F    0.000000   0.000000   0.000000   0.000000   0.000000   0.000000
    22  F    0.000000   0.000000   0.000000   0.000000   0.000008   0.000000
    23  F    0.000000   0.000000   0.000000   0.000000  -0.000003   0.000078
    24  C    0.000019   0.000000   0.000000   0.000000  -0.000295  -0.000342
    25  F    0.000000   0.000000   0.000000   0.000000   0.000006   0.000000
    26  F    0.000000   0.000000   0.000000   0.000000   0.000044   0.000000
    27  F   -0.000240   0.000000   0.000000   0.000000   0.004307  -0.000075
    28  C   -0.004109   0.000008  -0.000007   0.000000  -0.008447   0.000202
    29  O    0.000158   0.000002   0.000000   0.000000   0.000035  -0.000031
    30  H    0.000000   0.000000   0.000000   0.000000   0.000000   0.000000
    31  H    0.000000   0.000000   0.000000   0.000000   0.000000   0.000000
    32  H    0.000000   0.000000   0.000000   0.000000   0.000000   0.000000
    33  H    0.000000   0.000000   0.000000   0.000000   0.000007   0.000000
    34  H   -0.000094   0.000002   0.000002   0.000000   0.000002   0.000000
    35  H    0.000380  -0.000007   0.000001   0.000000   0.000004   0.000000
    36  H   -0.000103   0.000001   0.000000   0.000000   0.000003   0.000000
    37  H   -0.033069   0.387045  -0.038521  -0.001131  -0.003734   0.007419
    38  H   -0.033079   0.386844  -0.038379  -0.001077   0.004629   0.000487
    39  H   -0.005451  -0.036641   0.390227  -0.033246  -0.000136   0.000073
    40  H   -0.005440  -0.036568   0.391050  -0.033132   0.004492   0.004056
    41  H   -0.000120   0.004122  -0.027357   0.387901  -0.000004   0.000000
    42  H    0.000055  -0.005069  -0.036949   0.392403   0.000011  -0.000002
    43  H    0.000055  -0.005177  -0.036789   0.392582  -0.000025   0.000015
              13         14         15         16         17         18
     1  C    0.000000   0.000000   0.000000   0.000000   0.000000   0.000000
     2  C   -0.000231   0.000005   0.000000   0.000000  -0.000001   0.000000
     3  C    0.003226  -0.000017   0.000000   0.000007   0.000000   0.000000
     4  N   -0.093794   0.001590  -0.000029   0.000036  -0.000105   0.000000
     5  C   -0.001918   0.000310   0.000006   0.000004   0.000027   0.000001
     6  O    0.000061   0.000001   0.000000   0.000000   0.000000   0.000000
     7  N   -0.093533   0.001927  -0.000012  -0.000021  -0.000284   0.000018
     8  C    0.003053  -0.000039   0.000006   0.000000   0.000004   0.000003
     9  C   -0.000219   0.000008   0.000000   0.000000  -0.000002  -0.000002
    10  C    0.000000   0.000000   0.000000   0.000000   0.000000   0.000000
    11  C    0.203279  -0.013710   0.007630   0.000618  -0.002412   0.007173
    12  O   -0.090467   0.016548  -0.007956   0.000012  -0.001138  -0.005479
    13  N    7.585860   0.160956  -0.048598  -0.039280  -0.057240   0.000169
    14  C    0.160956   4.454405   0.251084   0.272445   0.174069  -0.028183
    15  F   -0.048598   0.251084   9.131659  -0.042303  -0.023610   0.000255
    16  F   -0.039280   0.272445  -0.042303   9.094662  -0.031810   0.000297
    17  C   -0.057240   0.174069  -0.023610  -0.031810   5.003407   0.227009
    18  F    0.000169  -0.028183   0.000255   0.000297   0.227009   9.117130
    19  O    0.001708  -0.028292  -0.001813   0.000148   0.149971  -0.050182
    20  C    0.000294  -0.003345   0.012845  -0.000281  -0.001478   0.000406
    21  F    0.000000  -0.000038  -0.000005   0.000000   0.000760  -0.000025
    22  F    0.000036   0.016851  -0.008350  -0.000381  -0.009794  -0.000019
    23  F   -0.000040  -0.005565  -0.002203   0.000012   0.014955  -0.002847
    24  C   -0.003767  -0.038080   0.001292   0.002146   0.224538  -0.010049
    25  F   -0.000014   0.001564  -0.000001  -0.000001  -0.026388  -0.000853
    26  F   -0.000729   0.005582   0.000001   0.000353  -0.041934   0.000308
    27  F   -0.004264  -0.006532   0.000002  -0.000076  -0.026943  -0.000697
    28  C    0.195209  -0.007264   0.000376   0.007724  -0.002127  -0.000138
    29  O   -0.089636   0.012770   0.000014  -0.014369  -0.004772   0.000004
    30  H    0.000000   0.000000   0.000000   0.000000   0.000000   0.000000
    31  H    0.000000   0.000000   0.000000   0.000000   0.000000   0.000000
    32  H    0.000000   0.000000   0.000000   0.000000   0.000000   0.000000
    33  H   -0.000015   0.000000   0.000000   0.000000   0.000003   0.000000
    34  H    0.000005   0.000000   0.000000   0.000000   0.000000   0.000000
    35  H   -0.000099   0.000000   0.000000   0.000000   0.000000   0.000000
    36  H    0.000321  -0.000001   0.000000  -0.000001   0.000000   0.000000
    37  H    0.000337  -0.000001  -0.000002   0.000000   0.000000   0.000001
    38  H   -0.000100   0.000000   0.000000   0.000000   0.000000   0.000000
    39  H    0.000002   0.000000   0.000000   0.000000   0.000000   0.000000
    40  H   -0.000040  -0.000002   0.000000   0.000000   0.000003   0.000006
    41  H    0.000000   0.000000   0.000000   0.000000   0.000000   0.000000
    42  H    0.000000   0.000000   0.000000   0.000000   0.000000   0.000000
    43  H    0.000000   0.000000   0.000000   0.000000   0.000000   0.000000
              19         20         21         22         23         24
     1  C    0.000000   0.000000   0.000000   0.000000   0.000000   0.000000
     2  C    0.000000   0.000000   0.000000   0.000000   0.000000  -0.000003
     3  C    0.000000   0.000000   0.000000   0.000000   0.000000   0.000001
     4  N    0.000000   0.000000   0.000000   0.000000   0.000000  -0.000141
     5  C    0.000000   0.000000   0.000000   0.000000   0.000000   0.000006
     6  O    0.000000   0.000000   0.000000   0.000000   0.000000   0.000000
     7  N    0.000000   0.000000   0.000000   0.000000   0.000000   0.000019
     8  C    0.000000   0.000000   0.000000   0.000000   0.000000   0.000000
     9  C    0.000000   0.000000   0.000000   0.000000   0.000000   0.000000
    10  C    0.000000   0.000000   0.000000   0.000000   0.000000   0.000000
    11  C    0.000139  -0.000048   0.000000   0.000008  -0.000003  -0.000295
    12  O   -0.000007  -0.000041   0.000000   0.000000   0.000078  -0.000342
    13  N    0.001708   0.000294   0.000000   0.000036  -0.000040  -0.003767
    14  C   -0.028292  -0.003345  -0.000038   0.016851  -0.005565  -0.038080
    15  F   -0.001813   0.012845  -0.000005  -0.008350  -0.002203   0.001292
    16  F    0.000148  -0.000281   0.000000  -0.000381   0.000012   0.002146
    17  C    0.149971  -0.001478   0.000760  -0.009794   0.014955   0.224538
    18  F   -0.050182   0.000406  -0.000025  -0.000019  -0.002847  -0.010049
    19  O    8.361568   0.234466  -0.039612  -0.047237  -0.044880  -0.019911
    20  C    0.234466   3.819536   0.337405   0.303568   0.296738   0.001078
    21  F   -0.039612   0.337405   9.018862  -0.038053  -0.036662  -0.000046
    22  F   -0.047237   0.303568  -0.038053   9.062468  -0.033554  -0.000129
    23  F   -0.044880   0.296738  -0.036662  -0.033554   9.054433   0.000255
    24  C   -0.019911   0.001078  -0.000046  -0.000129   0.000255   4.172045
    25  F    0.000215   0.000005   0.000000   0.000000   0.000000   0.296888
    26  F    0.000752  -0.000031   0.000000   0.000001   0.000000   0.284926
    27  F    0.000615   0.000005   0.000000   0.000000   0.000000   0.271608
    28  C    0.000032   0.000002   0.000000   0.000003  -0.000001   0.002650
    29  O    0.000006   0.000000   0.000000   0.000000   0.000000   0.007658
    30  H    0.000000   0.000000   0.000000   0.000000   0.000000   0.000000
    31  H    0.000000   0.000000   0.000000   0.000000   0.000000   0.000000
    32  H    0.000000   0.000000   0.000000   0.000000   0.000000   0.000000
    33  H    0.000000   0.000000   0.000000   0.000000   0.000000   0.000054
    34  H    0.000000   0.000000   0.000000   0.000000   0.000000   0.000000
    35  H    0.000000   0.000000   0.000000   0.000000   0.000000   0.000000
    36  H    0.000000   0.000000   0.000000   0.000000   0.000000  -0.000001
    37  H    0.000000   0.000000   0.000000   0.000000   0.000000   0.000000
    38  H    0.000000   0.000000   0.000000   0.000000   0.000000   0.000000
    39  H    0.000000   0.000000   0.000000   0.000000   0.000000   0.000000
    40  H    0.000000   0.000000   0.000000   0.000000   0.000000   0.000001
    41  H    0.000000   0.000000   0.000000   0.000000   0.000000   0.000000
    42  H    0.000000   0.000000   0.000000   0.000000   0.000000   0.000000
    43  H    0.000000   0.000000   0.000000   0.000000   0.000000   0.000000
              25         26         27         28         29         30
     1  C    0.000000   0.000000   0.000001  -0.000031  -0.000041   0.392306
     2  C    0.000000  -0.000001  -0.000076  -0.003405  -0.002971  -0.036977
     3  C    0.000000   0.000000  -0.000021  -0.025877   0.001297  -0.005041
     4  N    0.000000  -0.000004  -0.001229   0.257926  -0.090380   0.000055
     5  C    0.000000   0.000000   0.000318  -0.018470   0.000186  -0.000027
     6  O    0.000000   0.000000   0.000000   0.000379  -0.000024   0.000013
     7  N    0.000000   0.000000  -0.000240  -0.004109   0.000158   0.000000
     8  C    0.000000   0.000000   0.000000   0.000008   0.000002   0.000000
     9  C    0.000000   0.000000   0.000000  -0.000007   0.000000   0.000000
    10  C    0.000000   0.000000   0.000000   0.000000   0.000000   0.000000
    11  C    0.000006   0.000044   0.004307  -0.008447   0.000035   0.000000
    12  O    0.000000   0.000000  -0.000075   0.000202  -0.000031   0.000000
    13  N   -0.000014  -0.000729  -0.004264   0.195209  -0.089636   0.000000
    14  C    0.001564   0.005582  -0.006532  -0.007264   0.012770   0.000000
    15  F   -0.000001   0.000001   0.000002   0.000376   0.000014   0.000000
    16  F   -0.000001   0.000353  -0.000076   0.007724  -0.014369   0.000000
    17  C   -0.026388  -0.041934  -0.026943  -0.002127  -0.004772   0.000000
    18  F   -0.000853   0.000308  -0.000697  -0.000138   0.000004   0.000000
    19  O    0.000215   0.000752   0.000615   0.000032   0.000006   0.000000
    20  C    0.000005  -0.000031   0.000005   0.000002   0.000000   0.000000
    21  F    0.000000   0.000000   0.000000   0.000000   0.000000   0.000000
    22  F    0.000000   0.000001   0.000000   0.000003   0.000000   0.000000
    23  F    0.000000   0.000000   0.000000  -0.000001   0.000000   0.000000
    24  C    0.296888   0.284926   0.271608   0.002650   0.007658   0.000000
    25  F    9.062899  -0.039893  -0.039329   0.000006  -0.000001   0.000000
    26  F   -0.039893   9.062455  -0.035353  -0.000047  -0.001132   0.000000
    27  F   -0.039329  -0.035353   9.079885   0.014642  -0.003954   0.000000
    28  C    0.000006  -0.000047   0.014642   4.198914   0.562527   0.000011
    29  O   -0.000001  -0.001132  -0.003954   0.562527   8.123858  -0.000002
    30  H    0.000000   0.000000   0.000000   0.000011  -0.000002   0.593277
    31  H    0.000000   0.000000   0.000000  -0.000026   0.000018  -0.031797
    32  H    0.000000   0.000000   0.000000  -0.000004   0.000000  -0.028842
    33  H    0.000000   0.000002   0.000604   0.004748   0.004274   0.004952
    34  H    0.000000   0.000000  -0.000002  -0.000119   0.000088  -0.004827
    35  H    0.000000   0.000000   0.000000   0.004588   0.000479   0.004221
    36  H    0.000000   0.000000   0.000001  -0.003623   0.007047  -0.000440
    37  H    0.000000   0.000000   0.000000   0.000002   0.000000   0.000000
    38  H    0.000000   0.000000   0.000000   0.000005   0.000000   0.000000
    39  H    0.000000   0.000000   0.000000   0.000004   0.000000   0.000000
    40  H    0.000000   0.000000   0.000004   0.000006   0.000000   0.000000
    41  H    0.000000   0.000000   0.000000   0.000000   0.000000   0.000000
    42  H    0.000000   0.000000   0.000000   0.000000   0.000000   0.000000
    43  H    0.000000   0.000000   0.000000   0.000000   0.000000   0.000000
              31         32         33         34         35         36
     1  C    0.392566   0.387886  -0.032810  -0.033284  -0.001072  -0.001160
     2  C   -0.036776  -0.027357   0.390080   0.390063  -0.038491  -0.038487
     3  C   -0.005195   0.004116  -0.036577  -0.036602   0.387005   0.387082
     4  N    0.000054  -0.000120  -0.005663  -0.005560  -0.033060  -0.032982
     5  C    0.000011  -0.000003  -0.000205   0.004775  -0.004617   0.004336
     6  O   -0.000002   0.000000   0.000072   0.004097   0.008603   0.000514
     7  N    0.000000   0.000000   0.000000  -0.000094   0.000380  -0.000103
     8  C    0.000000   0.000000   0.000000   0.000002  -0.000007   0.000001
     9  C    0.000000   0.000000   0.000000   0.000002   0.000001   0.000000
    10  C    0.000000   0.000000   0.000000   0.000000   0.000000   0.000000
    11  C    0.000000   0.000000   0.000007   0.000002   0.000004   0.000003
    12  O    0.000000   0.000000   0.000000   0.000000   0.000000   0.000000
    13  N    0.000000   0.000000  -0.000015   0.000005  -0.000099   0.000321
    14  C    0.000000   0.000000   0.000000   0.000000   0.000000  -0.000001
    15  F    0.000000   0.000000   0.000000   0.000000   0.000000   0.000000
    16  F    0.000000   0.000000   0.000000   0.000000   0.000000  -0.000001
    17  C    0.000000   0.000000   0.000003   0.000000   0.000000   0.000000
    18  F    0.000000   0.000000   0.000000   0.000000   0.000000   0.000000
    19  O    0.000000   0.000000   0.000000   0.000000   0.000000   0.000000
    20  C    0.000000   0.000000   0.000000   0.000000   0.000000   0.000000
    21  F    0.000000   0.000000   0.000000   0.000000   0.000000   0.000000
    22  F    0.000000   0.000000   0.000000   0.000000   0.000000   0.000000
    23  F    0.000000   0.000000   0.000000   0.000000   0.000000   0.000000
    24  C    0.000000   0.000000   0.000054   0.000000   0.000000  -0.000001
    25  F    0.000000   0.000000   0.000000   0.000000   0.000000   0.000000
    26  F    0.000000   0.000000   0.000002   0.000000   0.000000   0.000000
    27  F    0.000000   0.000000   0.000604  -0.000002   0.000000   0.000001
    28  C   -0.000026  -0.000004   0.004748  -0.000119   0.004588  -0.003623
    29  O    0.000018   0.000000   0.004274   0.000088   0.000479   0.007047
    30  H   -0.031797  -0.028842   0.004952  -0.004827   0.004221  -0.000440
    31  H    0.591997  -0.028765  -0.004814   0.004973  -0.000434   0.004228
    32  H   -0.028765   0.585374  -0.003463  -0.003463  -0.000099  -0.000091
    33  H   -0.004814  -0.003463   0.596945  -0.036251   0.004846  -0.005630
    34  H    0.004973  -0.003463  -0.036251   0.600425  -0.005666   0.004935
    35  H   -0.000434  -0.000099   0.004846  -0.005666   0.555386  -0.030141
    36  H    0.004228  -0.000091  -0.005630   0.004935  -0.030141   0.557389
    37  H    0.000000   0.000000   0.000000   0.000000   0.000000   0.000000
    38  H    0.000000   0.000000   0.000000  -0.000001   0.000001   0.000000
    39  H    0.000000   0.000000   0.000000   0.000049  -0.000001   0.000000
    40  H    0.000000   0.000000   0.000000   0.000000   0.000000   0.000000
    41  H    0.000000   0.000000   0.000000   0.000000   0.000000   0.000000
    42  H    0.000000   0.000000   0.000000   0.000000   0.000000   0.000000
    43  H    0.000000   0.000000   0.000000   0.000000   0.000000   0.000000
              37         38         39         40         41         42
     1  C    0.000000   0.000000   0.000000   0.000000   0.000000   0.000000
     2  C    0.000000   0.000001   0.000002   0.000000   0.000000   0.000000
     3  C    0.000001  -0.000008   0.000002   0.000000   0.000000   0.000000
     4  N   -0.000102   0.000386  -0.000090   0.000000   0.000000   0.000000
     5  C    0.004289  -0.004485   0.004673  -0.000151  -0.000003  -0.000027
     6  O    0.000514   0.008703   0.003980   0.000066   0.000000   0.000012
     7  N   -0.033069  -0.033079  -0.005451  -0.005440  -0.000120   0.000055
     8  C    0.387045   0.386844  -0.036641  -0.036568   0.004122  -0.005069
     9  C   -0.038521  -0.038379   0.390227   0.391050  -0.027357  -0.036949
    10  C   -0.001131  -0.001077  -0.033246  -0.033132   0.387901   0.392403
    11  C   -0.003734   0.004629  -0.000136   0.004492  -0.000004   0.000011
    12  O    0.007419   0.000487   0.000073   0.004056   0.000000  -0.000002
    13  N    0.000337  -0.000100   0.000002  -0.000040   0.000000   0.000000
    14  C   -0.000001   0.000000   0.000000  -0.000002   0.000000   0.000000
    15  F   -0.000002   0.000000   0.000000   0.000000   0.000000   0.000000
    16  F    0.000000   0.000000   0.000000   0.000000   0.000000   0.000000
    17  C    0.000000   0.000000   0.000000   0.000003   0.000000   0.000000
    18  F    0.000001   0.000000   0.000000   0.000006   0.000000   0.000000
    19  O    0.000000   0.000000   0.000000   0.000000   0.000000   0.000000
    20  C    0.000000   0.000000   0.000000   0.000000   0.000000   0.000000
    21  F    0.000000   0.000000   0.000000   0.000000   0.000000   0.000000
    22  F    0.000000   0.000000   0.000000   0.000000   0.000000   0.000000
    23  F    0.000000   0.000000   0.000000   0.000000   0.000000   0.000000
    24  C    0.000000   0.000000   0.000000   0.000001   0.000000   0.000000
    25  F    0.000000   0.000000   0.000000   0.000000   0.000000   0.000000
    26  F    0.000000   0.000000   0.000000   0.000000   0.000000   0.000000
    27  F    0.000000   0.000000   0.000000   0.000004   0.000000   0.000000
    28  C    0.000002   0.000005   0.000004   0.000006   0.000000   0.000000
    29  O    0.000000   0.000000   0.000000   0.000000   0.000000   0.000000
    30  H    0.000000   0.000000   0.000000   0.000000   0.000000   0.000000
    31  H    0.000000   0.000000   0.000000   0.000000   0.000000   0.000000
    32  H    0.000000   0.000000   0.000000   0.000000   0.000000   0.000000
    33  H    0.000000   0.000000   0.000000   0.000000   0.000000   0.000000
    34  H    0.000000  -0.000001   0.000049   0.000000   0.000000   0.000000
    35  H    0.000000   0.000001  -0.000001   0.000000   0.000000   0.000000
    36  H    0.000000   0.000000   0.000000   0.000000   0.000000   0.000000
    37  H    0.556659  -0.030061   0.004936  -0.005638  -0.000092  -0.000440
    38  H   -0.030061   0.554671  -0.005666   0.004873  -0.000098   0.004233
    39  H    0.004936  -0.005666   0.600124  -0.036297  -0.003466  -0.004819
    40  H   -0.005638   0.004873  -0.036297   0.597551  -0.003464   0.004965
    41  H   -0.000092  -0.000098  -0.003466  -0.003464   0.585161  -0.028814
    42  H   -0.000440   0.004233  -0.004819   0.004965  -0.028814   0.592783
    43  H    0.004228  -0.000440   0.004971  -0.004807  -0.028754  -0.031752
              43
     1  C    0.000000
     2  C    0.000000
     3  C    0.000000
     4  N    0.000000
     5  C    0.000011
     6  O   -0.000002
     7  N    0.000055
     8  C   -0.005177
     9  C   -0.036789
    10  C    0.392582
    11  C   -0.000025
    12  O    0.000015
    13  N    0.000000
    14  C    0.000000
    15  F    0.000000
    16  F    0.000000
    17  C    0.000000
    18  F    0.000000
    19  O    0.000000
    20  C    0.000000
    21  F    0.000000
    22  F    0.000000
    23  F    0.000000
    24  C    0.000000
    25  F    0.000000
    26  F    0.000000
    27  F    0.000000
    28  C    0.000000
    29  O    0.000000
    30  H    0.000000
    31  H    0.000000
    32  H    0.000000
    33  H    0.000000
    34  H    0.000000
    35  H    0.000000
    36  H    0.000000
    37  H    0.004228
    38  H   -0.000440
    39  H    0.004971
    40  H   -0.004807
    41  H   -0.028754
    42  H   -0.031752
    43  H    0.591860
 Mulliken charges:
               1
     1  C   -0.328230
     2  C   -0.187432
     3  C   -0.049576
     4  N   -0.574301
     5  C    0.825553
     6  O   -0.527174
     7  N   -0.575454
     8  C   -0.050457
     9  C   -0.186896
    10  C   -0.328209
    11  C    0.827477
    12  O   -0.509339
    13  N   -0.630531
    14  C    0.760954
    15  F   -0.270291
    16  F   -0.249942
    17  C    0.435288
    18  F   -0.254306
    19  O   -0.517687
    20  C    0.998875
    21  F   -0.242588
    22  F   -0.245416
    23  F   -0.240716
    24  C    0.807599
    25  F   -0.255103
    26  F   -0.235300
    27  F   -0.253198
    28  C    0.823732
    29  O   -0.513106
    30  H    0.113119
    31  H    0.113963
    32  H    0.114831
    33  H    0.118842
    34  H    0.116458
    35  H    0.148175
    36  H    0.146804
    37  H    0.147360
    38  H    0.148561
    39  H    0.116770
    40  H    0.118464
    41  H    0.114989
    42  H    0.113412
    43  H    0.114025
 Sum of Mulliken charges =   0.00000
 Mulliken charges with hydrogens summed into heavy atoms:
               1
     1  C    0.013684
     2  C    0.047868
     3  C    0.245403
     4  N   -0.574301
     5  C    0.825553
     6  O   -0.527174
     7  N   -0.575454
     8  C    0.245464
     9  C    0.048338
    10  C    0.014216
    11  C    0.827477
    12  O   -0.509339
    13  N   -0.630531
    14  C    0.760954
    15  F   -0.270291
    16  F   -0.249942
    17  C    0.435288
    18  F   -0.254306
    19  O   -0.517687
    20  C    0.998875
    21  F   -0.242588
    22  F   -0.245416
    23  F   -0.240716
    24  C    0.807599
    25  F   -0.255103
    26  F   -0.235300
    27  F   -0.253198
    28  C    0.823732
    29  O   -0.513106
 Electronic spatial extent (au):  <R**2>=          11796.0590
 Charge=              0.0000 electrons
 Dipole moment (field-independent basis, Debye):
    X=             -3.1620    Y=              0.5091    Z=              0.7386  Tot=              3.2868
 Quadrupole moment (field-independent basis, Debye-Ang):
   XX=           -171.3294   YY=           -159.4362   ZZ=           -159.7349
   XY=              2.9309   XZ=              1.9033   YZ=             -1.4393
 Traceless Quadrupole moment (field-independent basis, Debye-Ang):
   XX=             -7.8293   YY=              4.0640   ZZ=              3.7653
   XY=              2.9309   XZ=              1.9033   YZ=             -1.4393
 Octapole moment (field-independent basis, Debye-Ang**2):
  XXX=           -432.2180  YYY=            140.4177  ZZZ=             29.2414  XYY=           -169.2020
  XXY=             30.2404  XXZ=             -9.4254  XZZ=           -166.6579  YZZ=             48.6835
  YYZ=             18.4142  XYZ=            -13.5401
 Hexadecapole moment (field-independent basis, Debye-Ang**3):
 XXXX=          -8475.1187 YYYY=          -2491.5847 ZZZZ=          -2483.3418 XXXY=            408.6223
 XXXZ=             50.3987 YYYX=            387.8544 YYYZ=           -648.3882 ZZZX=            -19.6460
 ZZZY=           -632.4940 XXYY=          -1780.8575 XXZZ=          -1808.6537 YYZZ=           -841.6516
 XXYZ=           -201.9927 YYXZ=             -9.8322 ZZXY=            111.8508
 N-N= 3.535955909045D+03 E-N=-1.146834187747D+04  KE= 1.852514452118D+03
 No NMR shielding tensors so no spin-rotation constants.
 Leave Link  601 at Sun Mar  3 18:05:41 2024, MaxMem=  5368709120 cpu:         2.7
 (Enter /home/k0335/k033513/app/g09/l9999.exe)
 1\1\GINC-C18U03N3\SP\RCAM-B3LYP\6-31G(d,p)\C13H14F9N3O4\K033513\03-Mar
 -2024\0\\#p CAM-B3LYP/6-31G(d,p) SCRF=(PCM,Solvent=Generic,Read) NoSym
 m out=wfn\\Title A687474390_0\\0,1\C,0,-3.709876,-1.928983,-3.00899\C,
 0,-2.672065,-1.197869,-2.173452\C,0,-2.369658,-1.948995,-0.874004\N,0,
 -1.367434,-1.253632,-0.065658\C,0,-1.798587,-0.252497,0.77993\O,0,-2.9
 90244,0.037402,0.8964\N,0,-0.809353,0.42927,1.458277\C,0,-1.207568,1.5
 48801,2.312602\C,0,-1.318571,2.853862,1.52015\C,0,-1.729667,4.012904,2
 .413073\C,0,0.535844,0.203389,1.261838\O,0,1.38913,0.955557,1.729341\N
 ,0,0.874,-0.878387,0.49075\C,0,2.290925,-1.144297,0.301325\F,0,2.84907
 ,-1.159671,1.553137\F,0,2.481937,-2.430746,-0.118902\C,0,3.134263,-0.1
 98902,-0.609137\F,0,3.135096,1.08175,-0.137685\O,0,4.516909,-0.558236,
 -0.782635\C,0,5.220554,-0.694119,0.422829\F,0,6.535508,-0.559324,0.163
 136\F,0,5.011337,-1.924918,0.919676\F,0,4.86188,0.236581,1.31889\C,0,2
 .505154,-0.172403,-1.997333\F,0,3.19265,0.656726,-2.826037\F,0,2.49675
 2,-1.384324,-2.589209\F,0,1.233696,0.293967,-1.969343\C,0,-0.036418,-1
 .50955,-0.314362\O,0,0.314695,-2.232089,-1.2458\H,0,-4.652274,-2.03187
 5,-2.46165\H,0,-3.359397,-2.929411,-3.28211\H,0,-3.911631,-1.376113,-3
 .93176\H,0,-1.754603,-1.077389,-2.761384\H,0,-3.03534,-0.188195,-1.948
 781\H,0,-3.288971,-2.064286,-0.287402\H,0,-2.009395,-2.959366,-1.10229
 7\H,0,-0.475169,1.664205,3.120639\H,0,-2.169037,1.317442,2.786459\H,0,
 -2.051491,2.742366,0.712475\H,0,-0.359341,3.087492,1.043475\H,0,-1.803
 287,4.93481,1.827802\H,0,-2.704006,3.825297,2.875407\H,0,-0.996019,4.1
 73757,3.209424\\Version=ES64L-G09RevD.01\HF=-1866.987108\RMSD=6.962e-0
 9\Dipole=-1.2440407,0.2003065,0.2905934\Quadrupole=-5.8208706,3.021458
 7,2.7994119,2.1790548,1.4150687,-1.0700943\PG=C01 [X(C13H14F9N3O4)]\\@

 Writing a WFN file to "A687474390/A687474390_0.wfn"


 THE SECRET OF SUCCESS IN LIFE IS TO EAT WHAT YOU LIKE, AND LET THE FOOD
 FIGHT IT OUT INSIDE YOU. -- FROM A FORTUNE COOKIE
 Job cpu time:       0 days  0 hours 15 minutes  5.0 seconds.
 File lengths (MBytes):  RWF=    306 Int=      0 D2E=      0 Chk=     11 Scr=      1
 Normal termination of Gaussian 09 at Sun Mar  3 18:05:41 2024.
