 Entering Gaussian System, Link 0=g09
 Initial command:
 /home/k0335/k033513/app/g09/l1.exe "/home/k0335/k033513/app/g09/scratch/Gau-352652.inp" -scrdir="/home/k0335/k033513/app/g09/scratch/"
 Default is to use a total of  36 processors:
                               36 via shared-memory
                                1 via Linda
 Entering Link 1 = /home/k0335/k033513/app/g09/l1.exe PID=    352653.
  
 Copyright (c) 1988,1990,1992,1993,1995,1998,2003,2009,2013,
            Gaussian, Inc.  All Rights Reserved.
  
 This is part of the Gaussian(R) 09 program.  It is based on
 the Gaussian(R) 03 system (copyright 2003, Gaussian, Inc.),
 the Gaussian(R) 98 system (copyright 1998, Gaussian, Inc.),
 the Gaussian(R) 94 system (copyright 1995, Gaussian, Inc.),
 the Gaussian 92(TM) system (copyright 1992, Gaussian, Inc.),
 the Gaussian 90(TM) system (copyright 1990, Gaussian, Inc.),
 the Gaussian 88(TM) system (copyright 1988, Gaussian, Inc.),
 the Gaussian 86(TM) system (copyright 1986, Carnegie Mellon
 University), and the Gaussian 82(TM) system (copyright 1983,
 Carnegie Mellon University). Gaussian is a federally registered
 trademark of Gaussian, Inc.
  
 This software contains proprietary and confidential information,
 including trade secrets, belonging to Gaussian, Inc.
  
 This software is provided under written license and may be
 used, copied, transmitted, or stored only in accord with that
 written license.
  
 The following legend is applicable only to US Government
 contracts under FAR:
  
                    RESTRICTED RIGHTS LEGEND
  
 Use, reproduction and disclosure by the US Government is
 subject to restrictions as set forth in subparagraphs (a)
 and (c) of the Commercial Computer Software - Restricted
 Rights clause in FAR 52.227-19.
  
 Gaussian, Inc.
 340 Quinnipiac St., Bldg. 40, Wallingford CT 06492
  
  
 ---------------------------------------------------------------
 Warning -- This program may not be used in any manner that
 competes with the business of Gaussian, Inc. or will provide
 assistance to any competitor of Gaussian, Inc.  The licensee
 of this program is prohibited from giving any competitor of
 Gaussian, Inc. access to this program.  By using this program,
 the user acknowledges that Gaussian, Inc. is engaged in the
 business of creating and licensing software in the field of
 computational chemistry and represents and warrants to the
 licensee that it is not a competitor of Gaussian, Inc. and that
 it will not use this program in any manner prohibited above.
 ---------------------------------------------------------------
  

 Cite this work as:
 Gaussian 09, Revision D.01,
 M. J. Frisch, G. W. Trucks, H. B. Schlegel, G. E. Scuseria, 
 M. A. Robb, J. R. Cheeseman, G. Scalmani, V. Barone, B. Mennucci, 
 G. A. Petersson, H. Nakatsuji, M. Caricato, X. Li, H. P. Hratchian, 
 A. F. Izmaylov, J. Bloino, G. Zheng, J. L. Sonnenberg, M. Hada, 
 M. Ehara, K. Toyota, R. Fukuda, J. Hasegawa, M. Ishida, T. Nakajima, 
 Y. Honda, O. Kitao, H. Nakai, T. Vreven, J. A. Montgomery, Jr., 
 J. E. Peralta, F. Ogliaro, M. Bearpark, J. J. Heyd, E. Brothers, 
 K. N. Kudin, V. N. Staroverov, T. Keith, R. Kobayashi, J. Normand, 
 K. Raghavachari, A. Rendell, J. C. Burant, S. S. Iyengar, J. Tomasi, 
 M. Cossi, N. Rega, J. M. Millam, M. Klene, J. E. Knox, J. B. Cross, 
 V. Bakken, C. Adamo, J. Jaramillo, R. Gomperts, R. E. Stratmann, 
 O. Yazyev, A. J. Austin, R. Cammi, C. Pomelli, J. W. Ochterski, 
 R. L. Martin, K. Morokuma, V. G. Zakrzewski, G. A. Voth, 
 P. Salvador, J. J. Dannenberg, S. Dapprich, A. D. Daniels, 
 O. Farkas, J. B. Foresman, J. V. Ortiz, J. Cioslowski, 
 and D. J. Fox, Gaussian, Inc., Wallingford CT, 2013.
 
 ******************************************
 Gaussian 09:  ES64L-G09RevD.01 24-Apr-2013
                 3-Mar-2024 
 ******************************************
 %nprocshared=24
 Will use up to   24 processors via shared memory.
 %mem=40GB
 %rwf=A687474390/A687474390_p1.rwf
 %nosave
 %chk=A687474390/A687474390_p1.chk
 ----------------------------------------------------------------------
 #p CAM-B3LYP/6-31G(d,p) SCRF=(PCM,Solvent=Generic,Read) NoSymm out=wfn
 ----------------------------------------------------------------------
 1/38=1,40=2/1;
 2/12=2,15=1,17=6,18=5,40=1/2;
 3/5=1,6=6,7=101,11=2,16=1,25=1,30=1,70=2203,72=-2,74=-40/1,2,3;
 4//1;
 5/5=2,38=5/2;
 6/7=2,8=2,9=2,10=2,28=1/1;
 99/5=1,6=100,9=1/99;
 Leave Link    1 at Sun Mar  3 18:04:44 2024, MaxMem=  5368709120 cpu:         0.9
 (Enter /home/k0335/k033513/app/g09/l101.exe)
 -------------------
 Title A687474390_p1
 -------------------
 Symbolic Z-matrix:
 Charge =  1 Multiplicity = 2
 C                    -3.70988  -1.92898  -3.00899 
 C                    -2.67207  -1.19787  -2.17345 
 C                    -2.36966  -1.949    -0.874 
 N                    -1.36743  -1.25363  -0.06566 
 C                    -1.79859  -0.2525    0.77993 
 O                    -2.99024   0.0374    0.8964 
 N                    -0.80935   0.42927   1.45828 
 C                    -1.20757   1.5488    2.3126 
 C                    -1.31857   2.85386   1.52015 
 C                    -1.72967   4.0129    2.41307 
 C                     0.53584   0.20339   1.26184 
 O                     1.38913   0.95556   1.72934 
 N                     0.874    -0.87839   0.49075 
 C                     2.29093  -1.1443    0.30133 
 F                     2.84907  -1.15967   1.55314 
 F                     2.48194  -2.43075  -0.1189 
 C                     3.13426  -0.1989   -0.60914 
 F                     3.1351    1.08175  -0.13769 
 O                     4.51691  -0.55824  -0.78264 
 C                     5.22055  -0.69412   0.42283 
 F                     6.53551  -0.55932   0.16314 
 F                     5.01134  -1.92492   0.91968 
 F                     4.86188   0.23658   1.31889 
 C                     2.50515  -0.1724   -1.99733 
 F                     3.19265   0.65673  -2.82604 
 F                     2.49675  -1.38432  -2.58921 
 F                     1.2337    0.29397  -1.96934 
 C                    -0.03642  -1.50955  -0.31436 
 O                     0.3147   -2.23209  -1.2458 
 H                    -4.65227  -2.03187  -2.46165 
 H                    -3.3594   -2.92941  -3.28211 
 H                    -3.91163  -1.37611  -3.93176 
 H                    -1.7546   -1.07739  -2.76138 
 H                    -3.03534  -0.1882   -1.94878 
 H                    -3.28897  -2.06429  -0.2874 
 H                    -2.0094   -2.95937  -1.1023 
 H                    -0.47517   1.66421   3.12064 
 H                    -2.16904   1.31744   2.78646 
 H                    -2.05149   2.74237   0.71248 
 H                    -0.35934   3.08749   1.04347 
 H                    -1.80329   4.93481   1.8278 
 H                    -2.70401   3.8253    2.87541 
 H                    -0.99602   4.17376   3.20942 
 
 NAtoms=     43 NQM=       43 NQMF=       0 NMMI=      0 NMMIF=      0
                NMic=       0 NMicF=      0.
                    Isotopes and Nuclear Properties:
 (Nuclear quadrupole moments (NQMom) in fm**2, nuclear magnetic moments (NMagM)
  in nuclear magnetons)

  Atom         1           2           3           4           5           6           7           8           9          10
 IAtWgt=          12          12          12          14          12          16          14          12          12          12
 AtmWgt=  12.0000000  12.0000000  12.0000000  14.0030740  12.0000000  15.9949146  14.0030740  12.0000000  12.0000000  12.0000000
 NucSpn=           0           0           0           2           0           0           2           0           0           0
 AtZEff=   0.0000000   0.0000000   0.0000000   0.0000000   0.0000000   0.0000000   0.0000000   0.0000000   0.0000000   0.0000000
 NQMom=    0.0000000   0.0000000   0.0000000   2.0440000   0.0000000   0.0000000   2.0440000   0.0000000   0.0000000   0.0000000
 NMagM=    0.0000000   0.0000000   0.0000000   0.4037610   0.0000000   0.0000000   0.4037610   0.0000000   0.0000000   0.0000000
 AtZNuc=   6.0000000   6.0000000   6.0000000   7.0000000   6.0000000   8.0000000   7.0000000   6.0000000   6.0000000   6.0000000

  Atom        11          12          13          14          15          16          17          18          19          20
 IAtWgt=          12          16          14          12          19          19          12          19          16          12
 AtmWgt=  12.0000000  15.9949146  14.0030740  12.0000000  18.9984033  18.9984033  12.0000000  18.9984033  15.9949146  12.0000000
 NucSpn=           0           0           2           0           1           1           0           1           0           0
 AtZEff=   0.0000000   0.0000000   0.0000000   0.0000000   0.0000000   0.0000000   0.0000000   0.0000000   0.0000000   0.0000000
 NQMom=    0.0000000   0.0000000   2.0440000   0.0000000   0.0000000   0.0000000   0.0000000   0.0000000   0.0000000   0.0000000
 NMagM=    0.0000000   0.0000000   0.4037610   0.0000000   2.6288670   2.6288670   0.0000000   2.6288670   0.0000000   0.0000000
 AtZNuc=   6.0000000   8.0000000   7.0000000   6.0000000   9.0000000   9.0000000   6.0000000   9.0000000   8.0000000   6.0000000

  Atom        21          22          23          24          25          26          27          28          29          30
 IAtWgt=          19          19          19          12          19          19          19          12          16           1
 AtmWgt=  18.9984033  18.9984033  18.9984033  12.0000000  18.9984033  18.9984033  18.9984033  12.0000000  15.9949146   1.0078250
 NucSpn=           1           1           1           0           1           1           1           0           0           1
 AtZEff=   0.0000000   0.0000000   0.0000000   0.0000000   0.0000000   0.0000000   0.0000000   0.0000000   0.0000000   0.0000000
 NQMom=    0.0000000   0.0000000   0.0000000   0.0000000   0.0000000   0.0000000   0.0000000   0.0000000   0.0000000   0.0000000
 NMagM=    2.6288670   2.6288670   2.6288670   0.0000000   2.6288670   2.6288670   2.6288670   0.0000000   0.0000000   2.7928460
 AtZNuc=   9.0000000   9.0000000   9.0000000   6.0000000   9.0000000   9.0000000   9.0000000   6.0000000   8.0000000   1.0000000

  Atom        31          32          33          34          35          36          37          38          39          40
 IAtWgt=           1           1           1           1           1           1           1           1           1           1
 AtmWgt=   1.0078250   1.0078250   1.0078250   1.0078250   1.0078250   1.0078250   1.0078250   1.0078250   1.0078250   1.0078250
 NucSpn=           1           1           1           1           1           1           1           1           1           1
 AtZEff=   0.0000000   0.0000000   0.0000000   0.0000000   0.0000000   0.0000000   0.0000000   0.0000000   0.0000000   0.0000000
 NQMom=    0.0000000   0.0000000   0.0000000   0.0000000   0.0000000   0.0000000   0.0000000   0.0000000   0.0000000   0.0000000
 NMagM=    2.7928460   2.7928460   2.7928460   2.7928460   2.7928460   2.7928460   2.7928460   2.7928460   2.7928460   2.7928460
 AtZNuc=   1.0000000   1.0000000   1.0000000   1.0000000   1.0000000   1.0000000   1.0000000   1.0000000   1.0000000   1.0000000

  Atom        41          42          43
 IAtWgt=           1           1           1
 AtmWgt=   1.0078250   1.0078250   1.0078250
 NucSpn=           1           1           1
 AtZEff=   0.0000000   0.0000000   0.0000000
 NQMom=    0.0000000   0.0000000   0.0000000
 NMagM=    2.7928460   2.7928460   2.7928460
 AtZNuc=   1.0000000   1.0000000   1.0000000
 Leave Link  101 at Sun Mar  3 18:04:44 2024, MaxMem=  5368709120 cpu:         1.1
 (Enter /home/k0335/k033513/app/g09/l202.exe)
                          Input orientation:                          
 ---------------------------------------------------------------------
 Center     Atomic      Atomic             Coordinates (Angstroms)
 Number     Number       Type             X           Y           Z
 ---------------------------------------------------------------------
      1          6           0       -3.709876   -1.928983   -3.008990
      2          6           0       -2.672065   -1.197869   -2.173452
      3          6           0       -2.369658   -1.948995   -0.874004
      4          7           0       -1.367434   -1.253632   -0.065658
      5          6           0       -1.798587   -0.252497    0.779930
      6          8           0       -2.990244    0.037402    0.896400
      7          7           0       -0.809353    0.429270    1.458277
      8          6           0       -1.207568    1.548801    2.312602
      9          6           0       -1.318571    2.853862    1.520150
     10          6           0       -1.729667    4.012904    2.413073
     11          6           0        0.535844    0.203389    1.261838
     12          8           0        1.389130    0.955557    1.729341
     13          7           0        0.874000   -0.878387    0.490750
     14          6           0        2.290925   -1.144297    0.301325
     15          9           0        2.849070   -1.159671    1.553137
     16          9           0        2.481937   -2.430746   -0.118902
     17          6           0        3.134263   -0.198902   -0.609137
     18          9           0        3.135096    1.081750   -0.137685
     19          8           0        4.516909   -0.558236   -0.782635
     20          6           0        5.220554   -0.694119    0.422829
     21          9           0        6.535508   -0.559324    0.163136
     22          9           0        5.011337   -1.924918    0.919676
     23          9           0        4.861880    0.236581    1.318890
     24          6           0        2.505154   -0.172403   -1.997333
     25          9           0        3.192650    0.656726   -2.826037
     26          9           0        2.496752   -1.384324   -2.589209
     27          9           0        1.233696    0.293967   -1.969343
     28          6           0       -0.036418   -1.509550   -0.314362
     29          8           0        0.314695   -2.232089   -1.245800
     30          1           0       -4.652274   -2.031875   -2.461650
     31          1           0       -3.359397   -2.929411   -3.282110
     32          1           0       -3.911631   -1.376113   -3.931760
     33          1           0       -1.754603   -1.077389   -2.761384
     34          1           0       -3.035340   -0.188195   -1.948781
     35          1           0       -3.288971   -2.064286   -0.287402
     36          1           0       -2.009395   -2.959366   -1.102297
     37          1           0       -0.475169    1.664205    3.120639
     38          1           0       -2.169037    1.317442    2.786459
     39          1           0       -2.051491    2.742366    0.712475
     40          1           0       -0.359341    3.087492    1.043475
     41          1           0       -1.803287    4.934810    1.827802
     42          1           0       -2.704006    3.825297    2.875407
     43          1           0       -0.996019    4.173757    3.209424
 ---------------------------------------------------------------------
                    Distance matrix (angstroms):
                    1          2          3          4          5
     1  C    0.000000
     2  C    1.519771   0.000000
     3  C    2.520863   1.531080   0.000000
     4  N    3.821824   2.479509   1.463354   0.000000
     5  C    4.562844   3.221670   2.437155   1.379559   0.000000
     6  O    4.431322   3.324323   2.732257   2.286009   1.231931
     7  N    5.825021   4.393943   3.678346   2.337946   1.379690
     8  C    6.831974   5.460186   4.872319   3.679036   2.437839
     9  C    7.007643   5.647226   5.468473   4.403258   3.229212
    10  C    8.284082   7.005461   6.838034   5.831957   4.567883
    11  C    6.388515   4.904633   4.199586   2.740004   2.426857
    12  O    7.534734   6.030120   5.416855   3.962472   3.538688
    13  N    5.862069   4.446866   3.678325   2.339749   2.760088
    14  C    6.898082   5.546049   4.873394   3.678345   4.212894
    15  F    8.026495   6.661220   5.809403   4.517547   4.798076
    16  F    6.851491   5.683740   4.933583   4.025679   4.886262
    17  C    7.456186   6.095774   5.781533   4.655438   5.124977
    18  F    8.010153   6.562326   6.326918   5.072669   5.192635
    19  O    8.632242   7.350160   7.026191   5.968511   6.513108
    20  C    9.646494   8.323934   7.801782   6.629726   7.042080
    21  F   10.812319   9.520860   9.072421   7.936681   8.362519
    22  F    9.565249   8.314488   7.595851   6.489239   7.013671
    23  F    9.843537   8.427006   7.866427   6.553019   6.700112
    24  C    6.537249   5.280738   5.308666   4.460646   5.122674
    25  F    7.373210   6.185489   6.445113   5.662466   6.224318
    26  F    6.244606   5.188862   5.190638   4.617069   5.575129
    27  F    5.519174   4.185953   4.383470   3.575606   4.129390
    28  C    4.575067   3.240370   2.439328   1.378024   2.425468
    29  O    4.404303   3.294068   2.724725   2.275889   3.533883
    30  H    1.094661   2.167914   2.781695   4.139639   4.670927
    31  H    1.094663   2.167899   2.782045   4.137839   5.109028
    32  H    1.094475   2.158690   3.472139   4.629761   5.284647
    33  H    2.147001   1.096319   2.167993   2.729084   3.636384
    34  H    2.146948   1.096306   2.167647   2.731889   2.996591
    35  H    2.757265   2.165280   1.096599   2.097292   2.577406
    36  H    2.754778   2.165497   1.096703   2.096727   3.303689
    37  H    7.806836   6.406654   5.709770   4.411621   3.302136
    38  H    6.819141   5.583954   4.910076   3.922698   2.574510
    39  H    6.198471   4.923326   4.962561   4.128126   3.006279
    40  H    7.267295   5.836234   5.751895   4.592579   3.646424
    41  H    8.610534   7.373911   7.416691   6.486291   5.292090
    42  H    8.291540   7.122092   6.892918   6.019286   4.673244
    43  H    9.125630   7.787095   7.486612   6.349855   5.112561
                    6          7          8          9         10
     6  O    0.000000
     7  N    2.285947   0.000000
     8  C    2.732744   1.463488   0.000000
     9  C    3.334067   2.478261   1.530845   0.000000
    10  C    4.437789   3.821131   2.520810   1.519766   0.000000
    11  C    3.548858   1.378102   2.440025   3.245087   4.579333
    12  O    4.551452   2.276792   2.726715   3.313452   4.420606
    13  N    3.991942   2.340887   3.680124   4.449350   5.865078
    14  C    5.444380   3.664202   4.851543   5.522615   6.871780
    15  F    5.996822   3.989711   4.936489   5.786084   6.961311
    16  F    6.088297   4.636785   5.946550   6.712483   8.103649
    17  C    6.311265   4.496766   5.517474   5.803530   7.108507
    18  F    6.299189   4.304823   5.008071   5.071878   6.226070
    19  O    7.715652   5.862245   6.840302   7.141292   8.374221
    20  C    8.256912   6.220445   7.065599   7.520136   8.626860
    21  F    9.572550   7.523410   8.307805   8.670518   9.709820
    22  F    8.238722   6.301803   7.258219   7.953933   9.106542
    23  F    7.866004   5.676217   6.288687   6.714808   7.675047
    24  C    6.214266   4.825889   5.943264   6.012640   7.409601
    25  F    7.243499   5.867121   6.823733   6.638363   7.933562
    26  F    6.654164   5.531871   6.808301   7.028922   8.486195
    27  F    5.110771   3.992610   5.086200   5.024310   6.466652
    28  C    3.547407   2.738376   4.198338   4.903949   6.387761
    29  O    4.545573   3.957063   5.410604   6.015391   7.521084
    30  H    4.280275   6.015904   6.890626   7.130129   8.297223
    31  H    5.137918   6.344662   7.482349   7.789282   9.126164
    32  H    5.114500   6.475804   7.406695   7.371565   8.605776
    33  H    4.018576   4.579198   5.739465   5.828927   7.258561
    34  H    2.854467   4.116349   4.951494   4.922894   6.195142
    35  H    2.430580   3.926031   4.913925   5.598026   6.830537
    36  H    3.733293   4.413558   5.712095   6.414677   7.813362
    37  H    3.730862   2.097663   1.096654   2.165220   2.755141
    38  H    2.425944   2.098013   1.096581   2.165044   2.756443
    39  H    2.869132   2.729385   2.167305   1.096331   2.147061
    40  H    4.030674   2.727768   2.167428   1.096323   2.147086
    41  H    5.124547   4.628644   3.472027   2.158690   1.094474
    42  H    4.283287   4.138957   2.781818   2.167911   1.094662
    43  H    5.141638   4.137939   2.781984   2.167904   1.094663
                   11         12         13         14         15
    11  C    0.000000
    12  O    1.229802   0.000000
    13  N    1.370827   2.272183   0.000000
    14  C    2.412292   2.694782   1.454052   0.000000
    15  F    2.700704   2.576172   2.260241   1.370692   0.000000
    16  F    3.554207   4.009648   2.316669   1.366758   2.132166
    17  C    3.227099   3.137952   2.603889   1.560106   2.383242
    18  F    3.079983   2.559318   3.057715   2.420876   2.822173
    19  O    4.539694   4.287726   3.872311   2.544296   2.932446
    20  C    4.843136   4.371294   4.350988   2.966505   2.668009
    21  F    6.146938   5.588655   5.679948   4.286931   3.985266
    22  F    4.967575   4.698199   4.289145   2.896959   2.379553
    23  F    4.326540   3.570068   4.222814   3.090643   2.460853
    24  C    3.826434   4.050420   3.057717   2.504855   3.701191
    25  F    4.896412   4.908508   4.328254   3.719837   4.753368
    26  F    4.603972   5.035052   3.517875   2.907777   4.163367
    27  F    3.306922   3.760602   2.748791   2.888299   4.138884
    28  C    2.397092   3.505091   1.369464   2.434955   3.454853
    29  O    3.502672   4.490764   2.271770   2.735393   3.925199
    30  H    6.765895   7.936480   6.370785   7.525280   8.552743
    31  H    6.755354   7.921876   6.030159   6.924867   8.065771
    32  H    7.017715   8.098322   6.535181   7.512952   8.708503
    33  H    4.803421   5.846583   4.186351   5.074540   6.309966
    34  H    4.818171   5.866233   4.659465   5.860564   6.916175
    35  H    4.708684   5.922105   4.397977   5.685791   6.471589
    36  H    4.697914   5.907179   3.896439   4.874155   5.821934
    37  H    2.571239   2.431769   3.898891   4.846389   4.634857
    38  H    3.298782   3.729479   4.399093   5.668096   5.730495
    39  H    3.666402   4.008064   4.660205   5.842240   6.320451
    40  H    3.027720   2.841251   4.189849   5.048043   5.347153
    41  H    5.308314   5.102517   6.538259   7.486538   7.672194
    42  H    5.120396   5.128610   6.372861   7.501473   7.578585
    43  H    4.680119   4.270409   6.034262   6.895124   6.780372
                   16         17         18         19         20
    16  F    0.000000
    17  C    2.376339   0.000000
    18  F    3.572758   1.364675   0.000000
    19  O    2.843931   1.439073   2.239402   0.000000
    20  C    3.287760   2.379665   2.795894   1.402399   0.000000
    21  F    4.473612   3.506391   3.787667   2.229176   1.347113
    22  F    2.780714   2.973181   3.698425   2.238335   1.343687
    23  F    3.853052   2.625185   2.411992   2.273136   1.340811
    24  C    2.937542   1.524326   2.329811   2.381495   3.674611
    25  F    4.167274   2.377005   2.722351   2.721266   4.061072
    26  F    2.682841   2.394229   3.535389   2.833225   4.119205
    27  F    3.522258   2.388563   2.755158   3.593607   4.753298
    28  C    2.688665   3.443531   4.099335   4.675154   5.370673
    29  O    2.450776   3.534000   4.490446   4.546967   5.405287
    30  H    7.519610   8.211075   8.702793   9.437405  10.372200
    31  H    6.661511   7.534460   8.255620   8.596862   9.609301
    32  H    7.518500   7.878469   8.372124   9.034722  10.140235
    33  H    5.173254   5.413402   5.954396   6.596729   7.677169
    34  H    6.230396   6.313380   6.554930   7.650705   8.604666
    35  H    5.784986   6.696350   7.154621   7.965250   8.648341
    36  H    4.628020   5.858377   6.612631   6.961340   7.728487
    37  H    6.000644   5.514562   4.897953   6.715328   6.729126
    38  H    6.642409   6.477219   6.061353   7.807591   8.014935
    39  H    6.928510   6.106534   5.511905   7.501547   8.048352
    40  H    6.314660   5.073143   4.198718   6.356400   6.769122
    41  H    8.740951   7.528152   6.564818   8.771135   9.110057
    42  H    8.660137   7.900735   7.120455   9.205338   9.446635
    43  H    8.172722   7.124660   6.150590   8.289793   8.372999
                   21         22         23         24         25
    21  F    0.000000
    22  F    2.181810   0.000000
    23  F    2.184093   2.203131   0.000000
    24  C    4.589236   4.226252   4.088858   0.000000
    25  F    4.646357   4.899273   4.488125   1.358991   0.000000
    26  F    4.956569   4.350592   4.847102   1.348755   2.169389
    27  F    5.777957   5.247900   4.896886   1.354581   2.168645
    28  C    6.657413   5.212985   5.450670   3.328655   4.629054
    29  O    6.594070   5.180935   5.774847   3.099229   4.373217
    30  H   11.585524  10.238661  10.486062   7.409589   8.300855
    31  H   10.742261   9.419830   9.938919   6.606414   7.483161
    32  H   11.250690  10.171380  10.351068   6.809262   7.471671
    33  H    8.806086   7.748965   7.883717   4.421346   5.242771
    34  H    9.808112   8.717411   8.557114   5.540729   6.345970
    35  H    9.949286   8.388777   8.620356   6.330479   7.473954
    36  H    8.965316   7.378966   7.955542   5.380465   6.565720
    37  H    7.927200   6.915764   5.811067   6.200733   7.059098
    38  H    9.282951   8.096638   7.263320   6.852180   7.790016
    39  H    9.216262   8.468176   7.378441   6.049955   6.661229
    40  H    7.849408   7.347364   5.955224   5.298940   5.787779
    41  H   10.123839   9.711831   8.170483   7.699217   8.057270
    42  H   10.580640   9.819184   8.517292   8.176830   8.793001
    43  H    9.402437   8.861439   7.306877   7.632669   8.145013
                   26         27         28         29         30
    26  F    0.000000
    27  F    2.190024   0.000000
    28  C    3.406987   2.757685   0.000000
    29  O    2.699042   2.783709   1.230008   0.000000
    30  H    7.179427   6.347956   5.117597   5.117534   0.000000
    31  H    6.096055   5.762814   4.676080   4.258141   1.774896
    32  H    6.547510   5.754532   5.302891   5.080247   1.771948
    33  H    4.265896   3.381993   3.021066   2.812885   3.065515
    34  H    5.696044   4.296228   3.662081   3.986781   2.505328
    35  H    6.263805   5.370735   3.299630   3.732706   2.566515
    36  H    4.999703   4.674782   2.572051   2.439451   3.113341
    37  H    7.122374   5.541271   4.697282   5.905149   7.891208
    38  H    7.613602   5.936644   4.706914   5.918379   6.702763
    39  H    6.972604   4.896862   4.815984   5.846271   6.295436
    40  H    6.430459   4.406656   4.804248   5.830356   7.544739
    41  H    8.827898   6.721533   7.017155   8.080676   8.663188
    42  H    9.167882   7.172684   6.763967   7.923940   8.160048
    43  H    8.758759   6.844270   6.755581   7.912133   9.167287
                   31         32         33         34         35
    31  H    0.000000
    32  H    1.771932   0.000000
    33  H    2.505295   2.472203   0.000000
    34  H    3.065460   2.472092   1.758203   0.000000
    35  H    3.117960   3.760669   3.073896   2.518775   0.000000
    36  H    2.564174   3.759129   2.521770   3.073839   1.761402
    37  H    8.391381   8.413628   6.614490   5.973682   5.782203
    38  H    7.502016   7.444887   6.056858   5.043800   4.705205
    39  H    7.059489   6.480039   5.171689   4.079023   5.063103
    40  H    7.994632   7.569379   5.811191   5.181186   6.074108
    41  H    9.506769   8.800308   7.563699   6.482724   7.461145
    42  H    9.163549   8.651621   7.530678   6.284162   6.710643
    43  H    9.908611   9.502545   7.987524   7.056383   7.509900
                   36         37         38         39         40
    36  H    0.000000
    37  H    6.447049   0.000000
    38  H    5.782646   1.760997   0.000000
    39  H    5.983721   3.073512   2.519054   0.000000
    40  H    6.625067   2.520669   3.073446   1.758421   0.000000
    41  H    8.422943   3.759279   3.760073   2.472321   2.472394
    42  H    7.895332   3.114189   2.565822   2.505352   3.065581
    43  H    8.396387   2.564570   3.116634   3.065560   2.505327
                   41         42         43
    41  H    0.000000
    42  H    1.771945   0.000000
    43  H    1.771938   1.774883   0.000000
 Symmetry turned off by external request.
 Stoichiometry    C13H14F9N3O4(1+,2)
 Framework group  C1[X(C13H14F9N3O4)]
 Deg. of freedom   123
 Full point group                 C1      NOp   1
 Rotational constants (GHZ):      0.2509602      0.1264017      0.1031694
 Leave Link  202 at Sun Mar  3 18:04:44 2024, MaxMem=  5368709120 cpu:         0.1
 (Enter /home/k0335/k033513/app/g09/l301.exe)
 Standard basis: 6-31G(d,p) (6D, 7F)
 Ernie: Thresh=  0.10000D-02 Tol=  0.10000D-05 Strict=F.
   505 basis functions,   910 primitive gaussians,   505 cartesian basis functions
   113 alpha electrons      112 beta electrons
       nuclear repulsion energy      3535.9559090453 Hartrees.
 IExCor=20419 DFT=T Ex+Corr=CAM-B3LYP ExCW=0 ScaHFX=  1.000000
 ScaDFX=  1.000000  1.000000  1.000000  0.810000 ScalE2=  1.000000  1.000000
 IRadAn=      0 IRanWt=     -1 IRanGd=            0 ICorTp=0 IEmpDi=  4
  HFx wShort=  0.000000 wLong=  0.330000 cFull=  0.190000 cShort=  0.000000 cLong=  0.460000
  DFx wShort=  0.000000 wLong=  0.330000 cFull=  0.190000 cShort=  0.000000 cLong=  0.460000
 NAtoms=   43 NActive=   43 NUniq=   43 SFac= 1.00D+00 NAtFMM=   60 NAOKFM=F Big=F
 Integral buffers will be    131072 words long.
 Raffenetti 2 integral format.
 Two-electron integral symmetry is turned off.
 Using the following non-standard input for PCM:
 eps=4.9
 --- end of non-standard input.
 ------------------------------------------------------------------------------
 Polarizable Continuum Model (PCM)
 =================================
 Model                : PCM (using non-symmetric T matrix).
 Atomic radii         : UFF (Universal Force Field).
 Polarization charges : Total charges.
 Charge compensation  : None.
 Solution method      : On-the-fly selection.
 Cavity type          : Scaled VdW (van der Waals Surface) (Alpha=1.100).
 Cavity algorithm     : GePol (No added spheres)
                        Default sphere list used, NSphG=   43.
                        Lebedev-Laikov grids with approx.  5.0 points / Ang**2.
                        Smoothing algorithm: Karplus/York (Gamma=1.0000).
                        Polarization charges: spherical gaussians, with
                                              point-specific exponents (IZeta= 3).
                        Self-potential: point-specific (ISelfS= 7).
                        Self-field    : sphere-specific E.n sum rule (ISelfD= 2).
 Solvent              : Generic,
                        Eps                           =   4.900000
                        Eps(infinity)                 =   0.000000
                        RSolv                         =   0.000000 Ang.
                        Molar volume                  =   0.000000 cm**3/mol
                        Thermal expansion coefficient =   0.000000 K**-1
                        Absolute temperature          = 298.150000 K
                        Numeral density               =   0.000000 Ang**-3
                        Hydrogen bond acidity         =   0.000000
                        Hydrogen bond basicity        =   0.000000
                        Surface tension at interface  =   0.000000 (cal/mol)*Ang**-2
                        Carbon aromaticity            =   0.000000
                        Electronegative halogenicity  =   0.000000
 ------------------------------------------------------------------------------
 GePol: Number of generator spheres                  =      43
 GePol: Total number of spheres                      =      43
 GePol: Number of exposed spheres                    =      43 (100.00%)
 GePol: Number of points                             =    3196
 GePol: Average weight of points                     =       0.13
 GePol: Minimum weight of points                     =   0.24D-09
 GePol: Maximum weight of points                     =    0.20577
 GePol: Number of points with low weight             =     154
 GePol: Fraction of low-weight points (<1% of avg)   =       4.82%
 GePol: Cavity surface area                          =    409.270 Ang**2
 GePol: Cavity volume                                =    461.583 Ang**3
 Leave Link  301 at Sun Mar  3 18:04:44 2024, MaxMem=  5368709120 cpu:         1.0
 (Enter /home/k0335/k033513/app/g09/l302.exe)
 NPDir=0 NMtPBC=     1 NCelOv=     1 NCel=       1 NClECP=     1 NCelD=      1
         NCelK=      1 NCelE2=     1 NClLst=     1 CellRange=     0.0.
 One-electron integrals computed using PRISM.
 NBasis=   505 RedAO= T EigKep=  1.24D-03  NBF=   505
 NBsUse=   505 1.00D-06 EigRej= -1.00D+00 NBFU=   505
 Precomputing XC quadrature grid using
 IXCGrd= 4 IRadAn=           0 IRanWt=          -1 IRanGd=           0 AccXCQ= 0.00D+00.
 Generated NRdTot=       0 NPtTot=           0 NUsed=           0 NTot=          32
 NSgBfM=   494   494   494   494   494 MxSgAt=    43 MxSgA2=    43.
 Leave Link  302 at Sun Mar  3 18:04:44 2024, MaxMem=  5368709120 cpu:         9.3
 (Enter /home/k0335/k033513/app/g09/l303.exe)
 DipDrv:  MaxL=1.
 Leave Link  303 at Sun Mar  3 18:04:44 2024, MaxMem=  5368709120 cpu:         0.9
 (Enter /home/k0335/k033513/app/g09/l401.exe)
 ExpMin= 1.61D-01 ExpMax= 7.00D+03 ExpMxC= 1.05D+03 IAcc=1 IRadAn=         1 AccDes= 0.00D+00
 Harris functional with IExCor=20419 and IRadAn=       1 diagonalized for initial guess.
 HarFok:  IExCor=20419 AccDes= 0.00D+00 IRadAn=         1 IDoV= 1 UseB2=F ITyADJ=14
 ICtDFT=  3500011 ScaDFX=  1.000000  1.000000  1.000000  1.000000
 FoFCou: FMM=F IPFlag=           0 FMFlag=      100000 FMFlg1=           0
         NFxFlg=           0 DoJE=T BraDBF=F KetDBF=T FulRan=T
         wScrn=  0.000000 ICntrl=     500 IOpCl=  0 I1Cent=   200000004 NGrid=           0
         NMat0=    1 NMatS0=      1 NMatT0=    0 NMatD0=    1 NMtDS0=    0 NMtDT0=    0
 Symmetry not used in FoFCou.
 Harris En= -1807.10879485076    
 JPrj=0 DoOrth=F DoCkMO=F.
 Initial guess <Sx>= 0.0000 <Sy>= 0.0000 <Sz>= 0.5000 <S**2>= 0.7500 S= 0.5000
 Leave Link  401 at Sun Mar  3 18:04:45 2024, MaxMem=  5368709120 cpu:        12.1
 (Enter /home/k0335/k033513/app/g09/l502.exe)
 UHF open shell SCF:
 Using DIIS extrapolation, IDIIS=  1040.
 Two-electron integral symmetry not used.
 IVT=      798861 IEndB=      798861 NGot=  5368709120 MDV=  5368182430
 LenX=  5368182430 LenY=  5367926900
 Requested convergence on RMS density matrix=1.00D-08 within 128 cycles.
 Requested convergence on MAX density matrix=1.00D-06.
 Requested convergence on             energy=1.00D-06.
 No special actions if energy rises.
 Fock matrices will be formed incrementally for  20 cycles.

 Cycle   1  Pass 1  IDiag  1:
 FoFJK:  IHMeth= 1 ICntrl=       0 DoSepK=T KAlg= 0 I1Cent=   0 FoldK=F
 IRaf=         1 NMat=   1 IRICut=       1 DoRegI=T DoRafI=F ISym2E= 0.
 FoFCou: FMM=F IPFlag=           0 FMFlag=      100000 FMFlg1=           0
         NFxFlg=           0 DoJE=T BraDBF=F KetDBF=F FulRan=T
         wScrn=  0.000000 ICntrl=     500 IOpCl=  0 I1Cent=           0 NGrid=           0
         NMat0=    1 NMatS0=      1 NMatT0=    0 NMatD0=    1 NMtDS0=    0 NMtDT0=    0
 Symmetry not used in FoFCou.
 Inv3:  Mode=1 IEnd=    30643248.
 Iteration    1 A*A^-1 deviation from unit magnitude is 5.55D-15 for   3194.
 Iteration    1 A*A^-1 deviation from orthogonality  is 3.47D-15 for   2636   2142.
 Iteration    1 A^-1*A deviation from unit magnitude is 5.55D-15 for   3171.
 Iteration    1 A^-1*A deviation from orthogonality  is 3.41D-11 for   2868   2865.
 E= -1865.82891000405    
 DIIS: error= 6.29D-02 at cycle   1 NSaved=   1.
 NSaved= 1 IEnMin= 1 EnMin= -1865.82891000405     IErMin= 1 ErrMin= 6.29D-02
 ErrMax= 6.29D-02  0.00D+00 EMaxC= 1.00D-01 BMatC= 6.94D+00 BMatP= 6.94D+00
 IDIUse=3 WtCom= 3.71D-01 WtEn= 6.29D-01
 Coeff-Com:  0.100D+01
 Coeff-En:   0.100D+01
 Coeff:      0.100D+01
 Gap=     0.543 Goal=   None    Shift=    0.000
 Gap=    -0.029 Goal=   None    Shift=    0.000
 GapD=   -0.029 DampG=0.250 DampE=0.500 DampFc=0.2500 IDamp=-1.
 Damping current iteration by 2.50D-01
 RMSDP=3.79D-03 MaxDP=1.82D-01              OVMax= 5.52D-01

 Cycle   2  Pass 1  IDiag  1:
 RMSU=  9.47D-04    CP:  1.00D+00
 E= -1866.10145373930     Delta-E=       -0.272543735249 Rises=F Damp=T
 DIIS: error= 4.89D-02 at cycle   2 NSaved=   2.
 NSaved= 2 IEnMin= 2 EnMin= -1866.10145373930     IErMin= 2 ErrMin= 4.89D-02
 ErrMax= 4.89D-02  0.00D+00 EMaxC= 1.00D-01 BMatC= 2.83D+00 BMatP= 6.94D+00
 IDIUse=3 WtCom= 5.11D-01 WtEn= 4.89D-01
 Coeff-Com: -0.136D+01 0.236D+01
 Coeff-En:   0.000D+00 0.100D+01
 Coeff:     -0.697D+00 0.170D+01
 Gap=     0.447 Goal=   None    Shift=    0.000
 Gap=     0.013 Goal=   None    Shift=    0.000
 RMSDP=2.01D-03 MaxDP=6.80D-02 DE=-2.73D-01 OVMax= 8.20D-01

 Cycle   3  Pass 1  IDiag  1:
 RMSU=  1.38D-03    CP:  9.99D-01  2.54D+00
 E= -1866.58360740993     Delta-E=       -0.482153670629 Rises=F Damp=F
 DIIS: error= 5.99D-03 at cycle   3 NSaved=   3.
 NSaved= 3 IEnMin= 3 EnMin= -1866.58360740993     IErMin= 3 ErrMin= 5.99D-03
 ErrMax= 5.99D-03  0.00D+00 EMaxC= 1.00D-01 BMatC= 3.31D-01 BMatP= 2.83D+00
 IDIUse=3 WtCom= 9.40D-01 WtEn= 5.99D-02
 Coeff-Com: -0.373D+00 0.710D+00 0.663D+00
 Coeff-En:   0.000D+00 0.000D+00 0.100D+01
 Coeff:     -0.351D+00 0.668D+00 0.683D+00
 Gap=     0.428 Goal=   None    Shift=    0.000
 Gap=     0.059 Goal=   None    Shift=    0.000
 RMSDP=8.02D-04 MaxDP=5.62D-02 DE=-4.82D-01 OVMax= 1.53D-01

 Cycle   4  Pass 1  IDiag  1:
 RMSU=  7.55D-04    CP:  1.00D+00  2.49D+00  8.09D-01
 E= -1866.63014151005     Delta-E=       -0.046534100121 Rises=F Damp=F
 DIIS: error= 4.83D-03 at cycle   4 NSaved=   4.
 NSaved= 4 IEnMin= 4 EnMin= -1866.63014151005     IErMin= 4 ErrMin= 4.83D-03
 ErrMax= 4.83D-03  0.00D+00 EMaxC= 1.00D-01 BMatC= 1.17D-01 BMatP= 3.31D-01
 IDIUse=3 WtCom= 9.52D-01 WtEn= 4.83D-02
 Coeff-Com: -0.867D-02 0.390D-01 0.369D+00 0.601D+00
 Coeff-En:   0.000D+00 0.000D+00 0.224D+00 0.776D+00
 Coeff:     -0.825D-02 0.371D-01 0.362D+00 0.609D+00
 Gap=     0.370 Goal=   None    Shift=    0.000
 Gap=     0.102 Goal=   None    Shift=    0.000
 RMSDP=4.24D-04 MaxDP=3.74D-02 DE=-4.65D-02 OVMax= 1.58D-01

 Cycle   5  Pass 1  IDiag  1:
 RMSU=  3.15D-04    CP:  9.99D-01  2.51D+00  9.28D-01  6.98D-01
 E= -1866.65740639068     Delta-E=       -0.027264880632 Rises=F Damp=F
 DIIS: error= 1.83D-03 at cycle   5 NSaved=   5.
 NSaved= 5 IEnMin= 5 EnMin= -1866.65740639068     IErMin= 5 ErrMin= 1.83D-03
 ErrMax= 1.83D-03  0.00D+00 EMaxC= 1.00D-01 BMatC= 1.38D-02 BMatP= 1.17D-01
 IDIUse=3 WtCom= 9.82D-01 WtEn= 1.83D-02
 Coeff-Com:  0.411D-03 0.710D-03 0.123D+00 0.320D+00 0.556D+00
 Coeff-En:   0.000D+00 0.000D+00 0.000D+00 0.000D+00 0.100D+01
 Coeff:      0.403D-03 0.697D-03 0.120D+00 0.314D+00 0.564D+00
 Gap=     0.353 Goal=   None    Shift=    0.000
 Gap=     0.098 Goal=   None    Shift=    0.000
 RMSDP=1.50D-04 MaxDP=1.09D-02 DE=-2.73D-02 OVMax= 4.92D-02

 Cycle   6  Pass 1  IDiag  1:
 RMSU=  1.30D-04    CP:  9.99D-01  2.52D+00  9.31D-01  7.73D-01  1.14D+00
 E= -1866.66255881373     Delta-E=       -0.005152423047 Rises=F Damp=F
 DIIS: error= 1.27D-03 at cycle   6 NSaved=   6.
 NSaved= 6 IEnMin= 6 EnMin= -1866.66255881373     IErMin= 6 ErrMin= 1.27D-03
 ErrMax= 1.27D-03  0.00D+00 EMaxC= 1.00D-01 BMatC= 1.94D-03 BMatP= 1.38D-02
 IDIUse=3 WtCom= 9.87D-01 WtEn= 1.27D-02
 Coeff-Com: -0.174D-01 0.212D-01-0.445D-01-0.559D-02 0.126D+00 0.921D+00
 Coeff-En:   0.000D+00 0.000D+00 0.000D+00 0.000D+00 0.000D+00 0.100D+01
 Coeff:     -0.172D-01 0.209D-01-0.440D-01-0.552D-02 0.124D+00 0.922D+00
 Gap=     0.352 Goal=   None    Shift=    0.000
 Gap=     0.105 Goal=   None    Shift=    0.000
 RMSDP=1.60D-04 MaxDP=1.10D-02 DE=-5.15D-03 OVMax= 7.34D-02

 Cycle   7  Pass 1  IDiag  1:
 RMSU=  6.59D-05    CP:  9.98D-01  2.54D+00  9.24D-01  7.99D-01  1.54D+00
                    CP:  1.54D+00
 E= -1866.66579115118     Delta-E=       -0.003232337458 Rises=F Damp=F
 DIIS: error= 7.98D-04 at cycle   7 NSaved=   7.
 NSaved= 7 IEnMin= 7 EnMin= -1866.66579115118     IErMin= 7 ErrMin= 7.98D-04
 ErrMax= 7.98D-04  0.00D+00 EMaxC= 1.00D-01 BMatC= 1.02D-03 BMatP= 1.94D-03
 IDIUse=3 WtCom= 9.92D-01 WtEn= 7.98D-03
 Coeff-Com: -0.213D-01 0.284D-01-0.745D-01-0.114D+00-0.172D+00 0.437D+00
 Coeff-Com:  0.916D+00
 Coeff-En:   0.000D+00 0.000D+00 0.000D+00 0.000D+00 0.000D+00 0.000D+00
 Coeff-En:   0.100D+01
 Coeff:     -0.211D-01 0.281D-01-0.739D-01-0.113D+00-0.170D+00 0.433D+00
 Coeff:      0.917D+00
 Gap=     0.349 Goal=   None    Shift=    0.000
 Gap=     0.113 Goal=   None    Shift=    0.000
 RMSDP=1.51D-04 MaxDP=8.06D-03 DE=-3.23D-03 OVMax= 7.19D-02

 Cycle   8  Pass 1  IDiag  1:
 RMSU=  4.87D-05    CP:  9.98D-01  2.55D+00  9.07D-01  8.12D-01  1.86D+00
                    CP:  2.18D+00  1.73D+00
 E= -1866.66791630167     Delta-E=       -0.002125150485 Rises=F Damp=F
 DIIS: error= 5.41D-04 at cycle   8 NSaved=   8.
 NSaved= 8 IEnMin= 8 EnMin= -1866.66791630167     IErMin= 8 ErrMin= 5.41D-04
 ErrMax= 5.41D-04  0.00D+00 EMaxC= 1.00D-01 BMatC= 4.49D-04 BMatP= 1.02D-03
 IDIUse=3 WtCom= 9.95D-01 WtEn= 5.41D-03
 Coeff-Com: -0.727D-02 0.113D-01-0.707D-02-0.198D-01-0.820D-01-0.144D+00
 Coeff-Com:  0.457D+00 0.793D+00
 Coeff-En:   0.000D+00 0.000D+00 0.000D+00 0.000D+00 0.000D+00 0.000D+00
 Coeff-En:   0.000D+00 0.100D+01
 Coeff:     -0.723D-02 0.112D-01-0.704D-02-0.197D-01-0.816D-01-0.144D+00
 Coeff:      0.454D+00 0.794D+00
 Gap=     0.349 Goal=   None    Shift=    0.000
 Gap=     0.115 Goal=   None    Shift=    0.000
 RMSDP=8.42D-05 MaxDP=5.53D-03 DE=-2.13D-03 OVMax= 3.56D-02

 Cycle   9  Pass 1  IDiag  1:
 RMSU=  2.38D-05    CP:  9.98D-01  2.56D+00  8.93D-01  8.00D-01  1.99D+00
                    CP:  2.46D+00  2.47D+00  1.50D+00
 E= -1866.66878784381     Delta-E=       -0.000871542139 Rises=F Damp=F
 DIIS: error= 3.84D-04 at cycle   9 NSaved=   9.
 NSaved= 9 IEnMin= 9 EnMin= -1866.66878784381     IErMin= 9 ErrMin= 3.84D-04
 ErrMax= 3.84D-04  0.00D+00 EMaxC= 1.00D-01 BMatC= 1.67D-04 BMatP= 4.49D-04
 IDIUse=3 WtCom= 9.96D-01 WtEn= 3.84D-03
 Coeff-Com:  0.773D-02-0.100D-01 0.329D-01 0.481D-01 0.441D-01-0.292D+00
 Coeff-Com: -0.120D+00 0.201D+00 0.109D+01
 Coeff-En:   0.000D+00 0.000D+00 0.000D+00 0.000D+00 0.000D+00 0.000D+00
 Coeff-En:   0.000D+00 0.000D+00 0.100D+01
 Coeff:      0.770D-02-0.998D-02 0.328D-01 0.479D-01 0.440D-01-0.291D+00
 Coeff:     -0.119D+00 0.200D+00 0.109D+01
 Gap=     0.348 Goal=   None    Shift=    0.000
 Gap=     0.116 Goal=   None    Shift=    0.000
 RMSDP=9.28D-05 MaxDP=6.74D-03 DE=-8.72D-04 OVMax= 3.68D-02

 Cycle  10  Pass 1  IDiag  1:
 RMSU=  2.77D-05    CP:  9.98D-01  2.56D+00  8.78D-01  7.85D-01  2.11D+00
                    CP:  2.72D+00  3.00D+00  2.37D+00  1.97D+00
 E= -1866.66950535544     Delta-E=       -0.000717511629 Rises=F Damp=F
 DIIS: error= 2.97D-04 at cycle  10 NSaved=  10.
 NSaved=10 IEnMin=10 EnMin= -1866.66950535544     IErMin=10 ErrMin= 2.97D-04
 ErrMax= 2.97D-04  0.00D+00 EMaxC= 1.00D-01 BMatC= 1.45D-04 BMatP= 1.67D-04
 IDIUse=3 WtCom= 9.97D-01 WtEn= 2.97D-03
 Coeff-Com:  0.406D-02-0.587D-02 0.101D-01 0.200D-01 0.537D-01-0.289D-01
 Coeff-Com: -0.108D+00-0.451D+00 0.500D+00 0.101D+01
 Coeff-En:   0.000D+00 0.000D+00 0.000D+00 0.000D+00 0.000D+00 0.000D+00
 Coeff-En:   0.000D+00 0.000D+00 0.000D+00 0.100D+01
 Coeff:      0.404D-02-0.585D-02 0.101D-01 0.199D-01 0.536D-01-0.288D-01
 Coeff:     -0.108D+00-0.449D+00 0.498D+00 0.101D+01
 Gap=     0.348 Goal=   None    Shift=    0.000
 Gap=     0.117 Goal=   None    Shift=    0.000
 RMSDP=7.04D-05 MaxDP=6.18D-03 DE=-7.18D-04 OVMax= 2.90D-02

 Cycle  11  Pass 1  IDiag  1:
 RMSU=  2.20D-05    CP:  9.98D-01  2.56D+00  8.66D-01  7.70D-01  2.17D+00
                    CP:  2.84D+00  3.00D+00  3.00D+00  3.00D+00  2.40D+00
 E= -1866.66994284363     Delta-E=       -0.000437488195 Rises=F Damp=F
 DIIS: error= 2.51D-04 at cycle  11 NSaved=  11.
 NSaved=11 IEnMin=11 EnMin= -1866.66994284363     IErMin=11 ErrMin= 2.51D-04
 ErrMax= 2.51D-04  0.00D+00 EMaxC= 1.00D-01 BMatC= 7.39D-05 BMatP= 1.45D-04
 IDIUse=3 WtCom= 9.97D-01 WtEn= 2.51D-03
 Coeff-Com: -0.483D-02 0.620D-02-0.203D-01-0.252D-01 0.121D-01 0.198D+00
 Coeff-Com:  0.115D+00-0.531D+00-0.412D+00 0.256D+00 0.141D+01
 Coeff-En:   0.000D+00 0.000D+00 0.000D+00 0.000D+00 0.000D+00 0.000D+00
 Coeff-En:   0.000D+00 0.000D+00 0.000D+00 0.000D+00 0.100D+01
 Coeff:     -0.482D-02 0.619D-02-0.203D-01-0.251D-01 0.121D-01 0.198D+00
 Coeff:      0.115D+00-0.529D+00-0.411D+00 0.255D+00 0.141D+01
 Gap=     0.347 Goal=   None    Shift=    0.000
 Gap=     0.118 Goal=   None    Shift=    0.000
 RMSDP=9.27D-05 MaxDP=9.67D-03 DE=-4.37D-04 OVMax= 3.78D-02

 Cycle  12  Pass 1  IDiag  1:
 RMSU=  6.82D-05    CP:  9.98D-01  2.57D+00  8.50D-01  7.46D-01  2.22D+00
                    CP:  2.95D+00  3.00D+00  3.00D+00  3.00D+00  3.00D+00
                    CP:  2.48D+00
 E= -1866.67036858422     Delta-E=       -0.000425740589 Rises=F Damp=F
 DIIS: error= 1.85D-04 at cycle  12 NSaved=  12.
 NSaved=12 IEnMin=12 EnMin= -1866.67036858422     IErMin=12 ErrMin= 1.85D-04
 ErrMax= 1.85D-04  0.00D+00 EMaxC= 1.00D-01 BMatC= 4.38D-05 BMatP= 7.39D-05
 IDIUse=3 WtCom= 9.98D-01 WtEn= 1.85D-03
 Coeff-Com: -0.373D-02 0.523D-02-0.703D-02-0.121D-01-0.738D-02 0.905D-02
 Coeff-Com:  0.118D+00 0.613D-01-0.172D+00-0.717D+00 0.514D+00 0.121D+01
 Coeff-En:   0.000D+00 0.000D+00 0.000D+00 0.000D+00 0.000D+00 0.000D+00
 Coeff-En:   0.000D+00 0.000D+00 0.000D+00 0.000D+00 0.000D+00 0.100D+01
 Coeff:     -0.372D-02 0.522D-02-0.702D-02-0.121D-01-0.737D-02 0.904D-02
 Coeff:      0.118D+00 0.612D-01-0.172D+00-0.716D+00 0.513D+00 0.121D+01
 Gap=     0.347 Goal=   None    Shift=    0.000
 Gap=     0.119 Goal=   None    Shift=    0.000
 RMSDP=7.10D-05 MaxDP=7.77D-03 DE=-4.26D-04 OVMax= 2.68D-02

 Cycle  13  Pass 1  IDiag  1:
 RMSU=  2.16D-05    CP:  9.98D-01  2.57D+00  8.37D-01  7.28D-01  2.26D+00
                    CP:  3.00D+00  3.00D+00  3.00D+00  3.00D+00  3.00D+00
                    CP:  3.00D+00  1.86D+00
 E= -1866.67059148128     Delta-E=       -0.000222897055 Rises=F Damp=F
 DIIS: error= 1.44D-04 at cycle  13 NSaved=  13.
 NSaved=13 IEnMin=13 EnMin= -1866.67059148128     IErMin=13 ErrMin= 1.44D-04
 ErrMax= 1.44D-04  0.00D+00 EMaxC= 1.00D-01 BMatC= 2.08D-05 BMatP= 4.38D-05
 IDIUse=3 WtCom= 9.99D-01 WtEn= 1.44D-03
 Coeff-Com: -0.602D-03 0.102D-02 0.421D-02 0.434D-02 0.574D-02-0.592D-01
 Coeff-Com:  0.217D-01 0.151D+00 0.134D+00-0.495D+00-0.164D+00 0.409D+00
 Coeff-Com:  0.987D+00
 Coeff-En:   0.000D+00 0.000D+00 0.000D+00 0.000D+00 0.000D+00 0.000D+00
 Coeff-En:   0.000D+00 0.000D+00 0.000D+00 0.000D+00 0.000D+00 0.000D+00
 Coeff-En:   0.100D+01
 Coeff:     -0.601D-03 0.101D-02 0.420D-02 0.433D-02 0.573D-02-0.591D-01
 Coeff:      0.216D-01 0.151D+00 0.134D+00-0.494D+00-0.163D+00 0.408D+00
 Coeff:      0.987D+00
 Gap=     0.347 Goal=   None    Shift=    0.000
 Gap=     0.119 Goal=   None    Shift=    0.000
 RMSDP=4.26D-05 MaxDP=4.36D-03 DE=-2.23D-04 OVMax= 1.34D-02

 Cycle  14  Pass 1  IDiag  1:
 RMSU=  9.03D-06    CP:  9.98D-01  2.57D+00  8.30D-01  7.16D-01  2.27D+00
                    CP:  3.00D+00  3.00D+00  3.00D+00  3.00D+00  3.00D+00
                    CP:  3.00D+00  2.36D+00  1.89D+00
 E= -1866.67069175460     Delta-E=       -0.000100273326 Rises=F Damp=F
 DIIS: error= 1.20D-04 at cycle  14 NSaved=  14.
 NSaved=14 IEnMin=14 EnMin= -1866.67069175460     IErMin=14 ErrMin= 1.20D-04
 ErrMax= 1.20D-04  0.00D+00 EMaxC= 1.00D-01 BMatC= 1.41D-05 BMatP= 2.08D-05
 IDIUse=3 WtCom= 9.99D-01 WtEn= 1.20D-03
 Coeff-Com:  0.423D-03-0.538D-03 0.370D-02 0.500D-02 0.840D-02-0.258D-01
 Coeff-Com: -0.188D-01 0.222D-02 0.159D+00-0.919D-01-0.941D-01-0.311D+00
 Coeff-Com:  0.537D+00 0.827D+00
 Coeff-En:   0.000D+00 0.000D+00 0.000D+00 0.000D+00 0.000D+00 0.000D+00
 Coeff-En:   0.000D+00 0.000D+00 0.000D+00 0.000D+00 0.000D+00 0.000D+00
 Coeff-En:   0.000D+00 0.100D+01
 Coeff:      0.423D-03-0.538D-03 0.369D-02 0.500D-02 0.839D-02-0.258D-01
 Coeff:     -0.188D-01 0.222D-02 0.159D+00-0.918D-01-0.940D-01-0.310D+00
 Coeff:      0.536D+00 0.827D+00
 Gap=     0.348 Goal=   None    Shift=    0.000
 Gap=     0.119 Goal=   None    Shift=    0.000
 RMSDP=2.82D-05 MaxDP=2.45D-03 DE=-1.00D-04 OVMax= 1.03D-02

 Cycle  15  Pass 1  IDiag  1:
 RMSU=  5.12D-06    CP:  9.98D-01  2.57D+00  8.24D-01  7.09D-01  2.27D+00
                    CP:  3.00D+00  3.00D+00  3.00D+00  3.00D+00  3.00D+00
                    CP:  3.00D+00  2.66D+00  2.56D+00  1.87D+00
 E= -1866.67074883357     Delta-E=       -0.000057078964 Rises=F Damp=F
 DIIS: error= 1.04D-04 at cycle  15 NSaved=  15.
 NSaved=15 IEnMin=15 EnMin= -1866.67074883357     IErMin=15 ErrMin= 1.04D-04
 ErrMax= 1.04D-04  0.00D+00 EMaxC= 1.00D-01 BMatC= 1.06D-05 BMatP= 1.41D-05
 IDIUse=3 WtCom= 9.99D-01 WtEn= 1.04D-03
 Coeff-Com: -0.188D-03 0.175D-03-0.114D-02 0.833D-03 0.940D-02 0.387D-01
 Coeff-Com: -0.166D-01-0.161D+00 0.499D-01 0.161D+00 0.247D+00-0.566D+00
 Coeff-Com: -0.199D+00 0.263D+00 0.117D+01
 Coeff-En:   0.000D+00 0.000D+00 0.000D+00 0.000D+00 0.000D+00 0.000D+00
 Coeff-En:   0.000D+00 0.000D+00 0.000D+00 0.000D+00 0.000D+00 0.000D+00
 Coeff-En:   0.000D+00 0.000D+00 0.100D+01
 Coeff:     -0.188D-03 0.175D-03-0.114D-02 0.832D-03 0.939D-02 0.386D-01
 Coeff:     -0.166D-01-0.161D+00 0.498D-01 0.161D+00 0.247D+00-0.565D+00
 Coeff:     -0.199D+00 0.262D+00 0.117D+01
 Gap=     0.349 Goal=   None    Shift=    0.000
 Gap=     0.119 Goal=   None    Shift=    0.000
 RMSDP=3.02D-05 MaxDP=2.37D-03 DE=-5.71D-05 OVMax= 1.26D-02

 Cycle  16  Pass 1  IDiag  1:
 RMSU=  8.61D-06    CP:  9.98D-01  2.57D+00  8.20D-01  7.02D-01  2.27D+00
                    CP:  3.00D+00  3.00D+00  3.00D+00  3.00D+00  3.00D+00
                    CP:  3.00D+00  2.93D+00  3.00D+00  3.00D+00  2.49D+00
 E= -1866.67080486431     Delta-E=       -0.000056030744 Rises=F Damp=F
 DIIS: error= 9.18D-05 at cycle  16 NSaved=  16.
 NSaved=16 IEnMin=16 EnMin= -1866.67080486431     IErMin=16 ErrMin= 9.18D-05
 ErrMax= 9.18D-05  0.00D+00 EMaxC= 1.00D-01 BMatC= 9.82D-06 BMatP= 1.06D-05
 IDIUse=1 WtCom= 1.00D+00 WtEn= 0.00D+00
 Coeff-Com: -0.143D-02 0.187D-02-0.473D-02-0.409D-02-0.136D-03 0.433D-01
 Coeff-Com:  0.206D-01-0.132D+00-0.444D-01-0.218D-01 0.422D+00-0.188D+00
 Coeff-Com: -0.326D+00-0.708D+00 0.697D+00 0.125D+01
 Coeff:     -0.143D-02 0.187D-02-0.473D-02-0.409D-02-0.136D-03 0.433D-01
 Coeff:      0.206D-01-0.132D+00-0.444D-01-0.218D-01 0.422D+00-0.188D+00
 Coeff:     -0.326D+00-0.708D+00 0.697D+00 0.125D+01
 Gap=     0.350 Goal=   None    Shift=    0.000
 Gap=     0.119 Goal=   None    Shift=    0.000
 RMSDP=4.17D-05 MaxDP=3.28D-03 DE=-5.60D-05 OVMax= 1.77D-02

 Cycle  17  Pass 1  IDiag  1:
 RMSU=  2.78D-05    CP:  9.98D-01  2.57D+00  8.13D-01  6.95D-01  2.27D+00
                    CP:  3.00D+00  3.00D+00  3.00D+00  3.00D+00  3.00D+00
                    CP:  3.00D+00  3.00D+00  3.00D+00  3.00D+00  3.00D+00
                    CP:  3.00D+00
 E= -1866.67087237930     Delta-E=       -0.000067514987 Rises=F Damp=F
 DIIS: error= 7.39D-05 at cycle  17 NSaved=  17.
 NSaved=17 IEnMin=17 EnMin= -1866.67087237930     IErMin=17 ErrMin= 7.39D-05
 ErrMax= 7.39D-05  0.00D+00 EMaxC= 1.00D-01 BMatC= 7.17D-06 BMatP= 9.82D-06
 IDIUse=1 WtCom= 1.00D+00 WtEn= 0.00D+00
 Coeff-Com: -0.120D-02 0.163D-02-0.171D-02-0.186D-02 0.415D-02 0.124D-01
 Coeff-Com:  0.167D-01-0.214D-01 0.662D-03-0.151D+00 0.215D+00 0.896D-01
 Coeff-Com:  0.156D-01-0.455D+00-0.740D+00 0.560D+00 0.146D+01
 Coeff:     -0.120D-02 0.163D-02-0.171D-02-0.186D-02 0.415D-02 0.124D-01
 Coeff:      0.167D-01-0.214D-01 0.662D-03-0.151D+00 0.215D+00 0.896D-01
 Coeff:      0.156D-01-0.455D+00-0.740D+00 0.560D+00 0.146D+01
 Gap=     0.352 Goal=   None    Shift=    0.000
 Gap=     0.119 Goal=   None    Shift=    0.000
 RMSDP=5.13D-05 MaxDP=3.97D-03 DE=-6.75D-05 OVMax= 2.32D-02

 Cycle  18  Pass 1  IDiag  1:
 RMSU=  2.67D-05    CP:  9.98D-01  2.57D+00  8.06D-01  6.87D-01  2.26D+00
                    CP:  3.00D+00  3.00D+00  3.00D+00  3.00D+00  3.00D+00
                    CP:  3.00D+00  3.00D+00  3.00D+00  3.00D+00  3.00D+00
                    CP:  3.00D+00  2.51D+00
 E= -1866.67094210926     Delta-E=       -0.000069729958 Rises=F Damp=F
 DIIS: error= 7.00D-05 at cycle  18 NSaved=  18.
 NSaved=18 IEnMin=18 EnMin= -1866.67094210926     IErMin=18 ErrMin= 7.00D-05
 ErrMax= 7.00D-05  0.00D+00 EMaxC= 1.00D-01 BMatC= 5.22D-06 BMatP= 7.17D-06
 IDIUse=1 WtCom= 1.00D+00 WtEn= 0.00D+00
 Coeff-Com:  0.213D-03-0.233D-03 0.221D-02 0.790D-03 0.492D-02-0.224D-01
 Coeff-Com: -0.406D-02 0.574D-01 0.713D-01-0.216D+00-0.137D-01 0.125D+00
 Coeff-Com:  0.325D+00 0.248D+00-0.110D+01-0.613D+00 0.791D+00 0.134D+01
 Coeff:      0.213D-03-0.233D-03 0.221D-02 0.790D-03 0.492D-02-0.224D-01
 Coeff:     -0.406D-02 0.574D-01 0.713D-01-0.216D+00-0.137D-01 0.125D+00
 Coeff:      0.325D+00 0.248D+00-0.110D+01-0.613D+00 0.791D+00 0.134D+01
 Gap=     0.354 Goal=   None    Shift=    0.000
 Gap=     0.120 Goal=   None    Shift=    0.000
 RMSDP=6.48D-05 MaxDP=5.06D-03 DE=-6.97D-05 OVMax= 3.00D-02

 Cycle  19  Pass 1  IDiag  1:
 RMSU=  4.09D-05    CP:  9.98D-01  2.58D+00  7.95D-01  6.76D-01  2.25D+00
                    CP:  3.00D+00  3.00D+00  3.00D+00  3.00D+00  3.00D+00
                    CP:  3.00D+00  3.00D+00  3.00D+00  3.00D+00  3.00D+00
                    CP:  3.00D+00  3.00D+00  2.14D+00
 E= -1866.67100856718     Delta-E=       -0.000066457927 Rises=F Damp=F
 DIIS: error= 5.14D-05 at cycle  19 NSaved=  19.
 NSaved=19 IEnMin=19 EnMin= -1866.67100856718     IErMin=19 ErrMin= 5.14D-05
 ErrMax= 5.14D-05  0.00D+00 EMaxC= 1.00D-01 BMatC= 6.26D-06 BMatP= 5.22D-06
 IDIUse=1 WtCom= 1.00D+00 WtEn= 0.00D+00
 Coeff-Com:  0.694D-03-0.913D-03 0.158D-02 0.243D-03 0.722D-02 0.161D-03
 Coeff-Com: -0.158D-01-0.109D-01 0.553D-01-0.764D-01 0.812D-01-0.952D-01
 Coeff-Com:  0.475D-01 0.389D+00-0.271D+00-0.282D+00-0.497D+00 0.887D+00
 Coeff-Com:  0.780D+00
 Coeff:      0.694D-03-0.913D-03 0.158D-02 0.243D-03 0.722D-02 0.161D-03
 Coeff:     -0.158D-01-0.109D-01 0.553D-01-0.764D-01 0.812D-01-0.952D-01
 Coeff:      0.475D-01 0.389D+00-0.271D+00-0.282D+00-0.497D+00 0.887D+00
 Coeff:      0.780D+00
 Gap=     0.355 Goal=   None    Shift=    0.000
 Gap=     0.119 Goal=   None    Shift=    0.000
 RMSDP=2.21D-05 MaxDP=1.55D-03 DE=-6.65D-05 OVMax= 1.14D-02

 Cycle  20  Pass 1  IDiag  1:
 RMSU=  5.09D-06    CP:  9.98D-01  2.58D+00  7.93D-01  6.73D-01  2.24D+00
                    CP:  3.00D+00  3.00D+00  3.00D+00  3.00D+00  3.00D+00
                    CP:  3.00D+00  3.00D+00  3.00D+00  3.00D+00  3.00D+00
                    CP:  3.00D+00  3.00D+00  2.66D+00  1.38D+00
 E= -1866.67102822308     Delta-E=       -0.000019655899 Rises=F Damp=F
 DIIS: error= 5.21D-05 at cycle  20 NSaved=  20.
 NSaved=20 IEnMin=20 EnMin= -1866.67102822308     IErMin=19 ErrMin= 5.14D-05
 ErrMax= 5.21D-05  0.00D+00 EMaxC= 1.00D-01 BMatC= 4.07D-06 BMatP= 5.22D-06
 IDIUse=1 WtCom= 1.00D+00 WtEn= 0.00D+00
 Coeff-Com:  0.369D-03-0.493D-03 0.758D-03 0.657D-03 0.507D-02-0.738D-03
 Coeff-Com: -0.235D-02-0.553D-01 0.569D-01-0.613D-01 0.136D+00-0.168D+00
 Coeff-Com: -0.232D-01 0.278D-01 0.418D+00 0.649D-01-0.779D+00 0.750D-01
 Coeff-Com: -0.380D+00 0.169D+01
 Coeff:      0.369D-03-0.493D-03 0.758D-03 0.657D-03 0.507D-02-0.738D-03
 Coeff:     -0.235D-02-0.553D-01 0.569D-01-0.613D-01 0.136D+00-0.168D+00
 Coeff:     -0.232D-01 0.278D-01 0.418D+00 0.649D-01-0.779D+00 0.750D-01
 Coeff:     -0.380D+00 0.169D+01
 Gap=     0.357 Goal=   None    Shift=    0.000
 Gap=     0.119 Goal=   None    Shift=    0.000
 RMSDP=4.17D-05 MaxDP=3.08D-03 DE=-1.97D-05 OVMax= 2.21D-02

 Cycle  21  Pass 1  IDiag  1:
 Restarting incremental Fock formation.
 E= -1866.67105980862     Delta-E=       -0.000031585541 Rises=F Damp=F
 DIIS: error= 4.07D-05 at cycle  21 NSaved=  20.
 NSaved=20 IEnMin=20 EnMin= -1866.67105980862     IErMin=20 ErrMin= 4.07D-05
 ErrMax= 4.07D-05  0.00D+00 EMaxC= 1.00D-01 BMatC= 4.92D-06 BMatP= 4.07D-06
 IDIUse=1 WtCom= 1.00D+00 WtEn= 0.00D+00
 Coeff-Com: -0.852D-05 0.559D-03 0.115D-02 0.513D-02-0.819D-02 0.510D-02
 Coeff-Com: -0.550D-01 0.643D-01-0.629D-01 0.118D+00-0.135D+00-0.721D-02
 Coeff-Com: -0.121D+00 0.311D+00 0.189D+00-0.297D+00-0.150D+00-0.128D+01
 Coeff-Com:  0.162D+01 0.796D+00
 Coeff:     -0.852D-05 0.559D-03 0.115D-02 0.513D-02-0.819D-02 0.510D-02
 Coeff:     -0.550D-01 0.643D-01-0.629D-01 0.118D+00-0.135D+00-0.721D-02
 Coeff:     -0.121D+00 0.311D+00 0.189D+00-0.297D+00-0.150D+00-0.128D+01
 Coeff:      0.162D+01 0.796D+00
 Gap=     0.358 Goal=   None    Shift=    0.000
 Gap=     0.120 Goal=   None    Shift=    0.000
 RMSDP=2.92D-05 MaxDP=2.04D-03 DE=-3.16D-05 OVMax= 1.64D-02

 Cycle  22  Pass 1  IDiag  1:
 RMSU=  2.92D-05    CP:  1.00D+00
 E= -1866.67108016774     Delta-E=       -0.000020359122 Rises=F Damp=F
 DIIS: error= 4.41D-05 at cycle  22 NSaved=  20.
 NSaved=20 IEnMin=20 EnMin= -1866.67108016774     IErMin=19 ErrMin= 4.07D-05
 ErrMax= 4.41D-05  0.00D+00 EMaxC= 1.00D-01 BMatC= 4.10D-06 BMatP= 4.07D-06
 IDIUse=1 WtCom= 1.00D+00 WtEn= 0.00D+00
 Coeff-Com:  0.828D-03 0.229D-03 0.508D-02-0.875D-02-0.223D-02 0.152D-02
 Coeff-Com:  0.452D-01-0.918D-01 0.426D-01 0.740D-02 0.800D-01 0.113D+00
 Coeff-Com: -0.452D+00-0.154D-01 0.321D+00 0.457D+00-0.619D+00 0.352D-01
 Coeff-Com: -0.158D+01 0.266D+01
 Coeff:      0.828D-03 0.229D-03 0.508D-02-0.875D-02-0.223D-02 0.152D-02
 Coeff:      0.452D-01-0.918D-01 0.426D-01 0.740D-02 0.800D-01 0.113D+00
 Coeff:     -0.452D+00-0.154D-01 0.321D+00 0.457D+00-0.619D+00 0.352D-01
 Coeff:     -0.158D+01 0.266D+01
 Gap=     0.360 Goal=   None    Shift=    0.000
 Gap=     0.119 Goal=   None    Shift=    0.000
 RMSDP=3.86D-05 MaxDP=2.78D-03 DE=-2.04D-05 OVMax= 2.32D-02

 Cycle  23  Pass 1  IDiag  1:
 RMSU=  1.01D-05    CP:  1.00D+00  2.28D+00
 E= -1866.67110770919     Delta-E=       -0.000027541450 Rises=F Damp=F
 DIIS: error= 4.60D-05 at cycle  23 NSaved=  20.
 NSaved=20 IEnMin=20 EnMin= -1866.67110770919     IErMin=18 ErrMin= 4.07D-05
 ErrMax= 4.60D-05  0.00D+00 EMaxC= 1.00D-01 BMatC= 3.17D-06 BMatP= 4.07D-06
 IDIUse=1 WtCom= 1.00D+00 WtEn= 0.00D+00
 Coeff-Com: -0.954D-03 0.387D-02 0.953D-03-0.239D-03-0.134D-01 0.297D-01
 Coeff-Com: -0.720D-01 0.683D-01-0.174D-01 0.562D-01 0.124D+00-0.344D+00
 Coeff-Com: -0.911D-01 0.174D+00 0.529D+00-0.276D+00-0.121D+00-0.187D+01
 Coeff-Com:  0.241D+01 0.409D+00
 Coeff:     -0.954D-03 0.387D-02 0.953D-03-0.239D-03-0.134D-01 0.297D-01
 Coeff:     -0.720D-01 0.683D-01-0.174D-01 0.562D-01 0.124D+00-0.344D+00
 Coeff:     -0.911D-01 0.174D+00 0.529D+00-0.276D+00-0.121D+00-0.187D+01
 Coeff:      0.241D+01 0.409D+00
 Gap=     0.360 Goal=   None    Shift=    0.000
 Gap=     0.119 Goal=   None    Shift=    0.000
 RMSDP=1.55D-05 MaxDP=1.13D-03 DE=-2.75D-05 OVMax= 9.27D-03

 Cycle  24  Pass 1  IDiag  1:
 RMSU=  1.03D-06    CP:  1.00D+00  2.80D+00  1.32D+00
 E= -1866.67111775909     Delta-E=       -0.000010049896 Rises=F Damp=F
 DIIS: error= 4.57D-05 at cycle  24 NSaved=  20.
 NSaved=20 IEnMin=20 EnMin= -1866.67111775909     IErMin=17 ErrMin= 4.07D-05
 ErrMax= 4.57D-05  0.00D+00 EMaxC= 1.00D-01 BMatC= 2.91D-06 BMatP= 3.17D-06
 IDIUse=1 WtCom= 1.00D+00 WtEn= 0.00D+00
 Coeff-Com:  0.421D-02 0.438D-02-0.924D-04-0.394D-01 0.203D-01-0.483D-01
 Coeff-Com:  0.127D+00-0.814D-01-0.383D-01-0.521D-01 0.143D+00 0.194D+00
 Coeff-Com: -0.240D+00 0.109D+00-0.320D+00 0.417D+00-0.111D+01 0.107D+01
 Coeff-Com: -0.141D+01 0.225D+01
 Coeff:      0.421D-02 0.438D-02-0.924D-04-0.394D-01 0.203D-01-0.483D-01
 Coeff:      0.127D+00-0.814D-01-0.383D-01-0.521D-01 0.143D+00 0.194D+00
 Coeff:     -0.240D+00 0.109D+00-0.320D+00 0.417D+00-0.111D+01 0.107D+01
 Coeff:     -0.141D+01 0.225D+01
 Gap=     0.361 Goal=   None    Shift=    0.000
 Gap=     0.119 Goal=   None    Shift=    0.000
 RMSDP=3.08D-05 MaxDP=2.23D-03 DE=-1.00D-05 OVMax= 1.87D-02

 Cycle  25  Pass 1  IDiag  1:
 RMSU=  2.27D-05    CP:  1.00D+00  3.00D+00  2.42D+00  3.00D+00
 E= -1866.67113794091     Delta-E=       -0.000020181821 Rises=F Damp=F
 DIIS: error= 4.41D-05 at cycle  25 NSaved=  20.
 NSaved=20 IEnMin=20 EnMin= -1866.67113794091     IErMin=16 ErrMin= 4.07D-05
 ErrMax= 4.41D-05  0.00D+00 EMaxC= 1.00D-01 BMatC= 2.67D-06 BMatP= 2.91D-06
 IDIUse=1 WtCom= 1.00D+00 WtEn= 0.00D+00
 Coeff-Com: -0.779D-02 0.483D-02-0.224D-01 0.402D-01-0.469D-01 0.807D-01
 Coeff-Com: -0.141D+00 0.370D-02-0.377D-01 0.447D+00 0.107D+00-0.745D+00
 Coeff-Com: -0.969D-01-0.309D+00 0.145D+01 0.714D+00-0.169D+01-0.540D+01
 Coeff-Com:  0.437D+01 0.228D+01
 Coeff:     -0.779D-02 0.483D-02-0.224D-01 0.402D-01-0.469D-01 0.807D-01
 Coeff:     -0.141D+00 0.370D-02-0.377D-01 0.447D+00 0.107D+00-0.745D+00
 Coeff:     -0.969D-01-0.309D+00 0.145D+01 0.714D+00-0.169D+01-0.540D+01
 Coeff:      0.437D+01 0.228D+01
 Gap=     0.365 Goal=   None    Shift=    0.000
 Gap=     0.119 Goal=   None    Shift=    0.000
 RMSDP=1.06D-04 MaxDP=7.78D-03 DE=-2.02D-05 OVMax= 6.38D-02

 Cycle  26  Pass 1  IDiag  1:
 RMSU=  6.22D-05    CP:  1.00D+00  3.00D+00  3.00D+00  3.00D+00  3.00D+00
 E= -1866.67119506531     Delta-E=       -0.000057124398 Rises=F Damp=F
 DIIS: error= 4.91D-05 at cycle  26 NSaved=  20.
 NSaved=20 IEnMin=20 EnMin= -1866.67119506531     IErMin=15 ErrMin= 4.07D-05
 ErrMax= 4.91D-05  0.00D+00 EMaxC= 1.00D-01 BMatC= 8.50D-06 BMatP= 2.67D-06
 IDIUse=1 WtCom= 1.00D+00 WtEn= 0.00D+00
 Coeff-Com: -0.455D-02-0.215D-01 0.165D-01-0.157D-01 0.107D+00-0.144D+00
 Coeff-Com: -0.961D-01-0.432D-01 0.449D+00 0.403D+00-0.892D+00-0.151D+00
 Coeff-Com: -0.622D+00 0.183D+01 0.494D+00-0.125D+01-0.438D+01 0.243D+01
 Coeff-Com:  0.241D+01 0.478D+00
 Coeff:     -0.455D-02-0.215D-01 0.165D-01-0.157D-01 0.107D+00-0.144D+00
 Coeff:     -0.961D-01-0.432D-01 0.449D+00 0.403D+00-0.892D+00-0.151D+00
 Coeff:     -0.622D+00 0.183D+01 0.494D+00-0.125D+01-0.438D+01 0.243D+01
 Coeff:      0.241D+01 0.478D+00
 Gap=     0.364 Goal=   None    Shift=    0.000
 Gap=     0.120 Goal=   None    Shift=    0.000
 RMSDP=3.66D-05 MaxDP=2.53D-03 DE=-5.71D-05 OVMax= 2.17D-02

 Cycle  27  Pass 1  IDiag  1:
 RMSU=  5.40D-06    CP:  1.00D+00  3.00D+00  3.00D+00  3.00D+00  3.00D+00
                    CP:  1.58D+00
 E= -1866.67121457523     Delta-E=       -0.000019509916 Rises=F Damp=F
 DIIS: error= 4.36D-05 at cycle  27 NSaved=  20.
 NSaved=20 IEnMin=20 EnMin= -1866.67121457523     IErMin=14 ErrMin= 4.07D-05
 ErrMax= 4.36D-05  0.00D+00 EMaxC= 1.00D-01 BMatC= 6.24D-06 BMatP= 2.67D-06
 IDIUse=1 WtCom= 1.00D+00 WtEn= 0.00D+00
 Coeff-Com: -0.219D-01 0.194D-01-0.408D-01 0.966D-01-0.104D+00-0.229D-01
 Coeff-Com: -0.105D+00 0.336D+00 0.165D+00-0.567D+00 0.233D-01-0.731D+00
 Coeff-Com:  0.159D+01 0.300D+00-0.829D+00-0.302D+01 0.192D+01 0.150D+01
 Coeff-Com: -0.679D+00 0.117D+01
 Coeff:     -0.219D-01 0.194D-01-0.408D-01 0.966D-01-0.104D+00-0.229D-01
 Coeff:     -0.105D+00 0.336D+00 0.165D+00-0.567D+00 0.233D-01-0.731D+00
 Coeff:      0.159D+01 0.300D+00-0.829D+00-0.302D+01 0.192D+01 0.150D+01
 Coeff:     -0.679D+00 0.117D+01
 Gap=     0.364 Goal=   None    Shift=    0.000
 Gap=     0.120 Goal=   None    Shift=    0.000
 RMSDP=7.48D-06 MaxDP=4.61D-04 DE=-1.95D-05 OVMax= 4.20D-03

 Cycle  28  Pass 1  IDiag  1:
 RMSU=  1.89D-06    CP:  1.00D+00  3.00D+00  3.00D+00  3.00D+00  3.00D+00
                    CP:  1.70D+00  1.19D+00
 E= -1866.67121892591     Delta-E=       -0.000004350682 Rises=F Damp=F
 DIIS: error= 3.55D-05 at cycle  28 NSaved=  20.
 NSaved=20 IEnMin=20 EnMin= -1866.67121892591     IErMin=20 ErrMin= 3.55D-05
 ErrMax= 3.55D-05  0.00D+00 EMaxC= 1.00D-01 BMatC= 4.11D-06 BMatP= 2.67D-06
 IDIUse=1 WtCom= 1.00D+00 WtEn= 0.00D+00
 Coeff-Com:  0.553D-02-0.394D-01 0.502D-01-0.270D-01-0.533D-01-0.131D-01
 Coeff-Com:  0.124D+00 0.966D-01-0.308D+00 0.631D-01 0.538D-01 0.534D+00
 Coeff-Com: -0.143D+00-0.895D+00-0.154D+01 0.102D+01 0.117D+01-0.966D+00
 Coeff-Com:  0.283D-01 0.184D+01
 Coeff:      0.553D-02-0.394D-01 0.502D-01-0.270D-01-0.533D-01-0.131D-01
 Coeff:      0.124D+00 0.966D-01-0.308D+00 0.631D-01 0.538D-01 0.534D+00
 Coeff:     -0.143D+00-0.895D+00-0.154D+01 0.102D+01 0.117D+01-0.966D+00
 Coeff:      0.283D-01 0.184D+01
 Gap=     0.365 Goal=   None    Shift=    0.000
 Gap=     0.121 Goal=   None    Shift=    0.000
 RMSDP=9.60D-05 MaxDP=6.83D-03 DE=-4.35D-06 OVMax= 5.76D-02

 Cycle  29  Pass 1  IDiag  1:
 RMSU=  1.75D-05    CP:  1.00D+00  3.00D+00  3.00D+00  3.00D+00  3.00D+00
                    CP:  3.00D+00  2.10D+00  1.80D+00
 E= -1866.67125770797     Delta-E=       -0.000038782064 Rises=F Damp=F
 DIIS: error= 1.02D-04 at cycle  29 NSaved=  20.
 NSaved=20 IEnMin=20 EnMin= -1866.67125770797     IErMin=19 ErrMin= 3.55D-05
 ErrMax= 1.02D-04  0.00D+00 EMaxC= 1.00D-01 BMatC= 1.86D-05 BMatP= 2.67D-06
 IDIUse=1 WtCom= 1.00D+00 WtEn= 0.00D+00
 Coeff-Com: -0.305D-01 0.390D-01-0.993D-02-0.221D-01 0.755D-01 0.119D+00
 Coeff-Com: -0.230D+00-0.189D+00 0.354D-01 0.849D+00-0.259D+00-0.511D+00
 Coeff-Com: -0.958D+00-0.188D+00 0.104D+01 0.108D+01-0.160D+01-0.137D+01
 Coeff-Com:  0.246D+01 0.665D+00
 Coeff:     -0.305D-01 0.390D-01-0.993D-02-0.221D-01 0.755D-01 0.119D+00
 Coeff:     -0.230D+00-0.189D+00 0.354D-01 0.849D+00-0.259D+00-0.511D+00
 Coeff:     -0.958D+00-0.188D+00 0.104D+01 0.108D+01-0.160D+01-0.137D+01
 Coeff:      0.246D+01 0.665D+00
 Gap=     0.365 Goal=   None    Shift=    0.000
 Gap=     0.120 Goal=   None    Shift=    0.000
 RMSDP=1.31D-05 MaxDP=1.00D-03 DE=-3.88D-05 OVMax= 7.34D-03

 Cycle  30  Pass 1  IDiag  1:
 RMSU=  5.92D-06    CP:  1.00D+00  3.00D+00  3.00D+00  3.00D+00  3.00D+00
                    CP:  3.00D+00  2.39D+00  3.00D+00  3.64D-01
 E= -1866.67125754825     Delta-E=        0.000000159720 Rises=F Damp=F
 DIIS: error= 3.90D-05 at cycle  30 NSaved=  20.
 NSaved=20 IEnMin=19 EnMin= -1866.67125770797     IErMin=18 ErrMin= 3.55D-05
 ErrMax= 3.90D-05  0.00D+00 EMaxC= 1.00D-01 BMatC= 4.70D-06 BMatP= 2.67D-06
 IDIUse=1 WtCom= 1.00D+00 WtEn= 0.00D+00
 Coeff-Com:  0.199D-01-0.345D-01-0.178D-01 0.122D+00 0.562D-01-0.216D+00
 Coeff-Com: -0.115D+00 0.637D-01 0.762D+00-0.376D+00-0.612D+00-0.711D+00
 Coeff-Com: -0.773D+00 0.121D+01 0.110D+01-0.106D+01-0.154D+01 0.181D+01
 Coeff-Com:  0.173D+00 0.114D+01
 Coeff:      0.199D-01-0.345D-01-0.178D-01 0.122D+00 0.562D-01-0.216D+00
 Coeff:     -0.115D+00 0.637D-01 0.762D+00-0.376D+00-0.612D+00-0.711D+00
 Coeff:     -0.773D+00 0.121D+01 0.110D+01-0.106D+01-0.154D+01 0.181D+01
 Coeff:      0.173D+00 0.114D+01
 Gap=     0.366 Goal=   None    Shift=    0.000
 Gap=     0.122 Goal=   None    Shift=    0.000
 RMSDP=9.83D-05 MaxDP=6.87D-03 DE= 1.60D-07 OVMax= 5.88D-02

 Cycle  31  Pass 1  IDiag  1:
 RMSU=  4.85D-05    CP:  1.00D+00  3.00D+00  3.00D+00  3.00D+00  3.00D+00
                    CP:  3.00D+00  3.00D+00  3.00D+00  3.00D+00 -3.00D+00
 E= -1866.67128942108     Delta-E=       -0.000031872833 Rises=F Damp=F
 DIIS: error= 1.46D-04 at cycle  31 NSaved=  20.
 NSaved=20 IEnMin=20 EnMin= -1866.67128942108     IErMin=17 ErrMin= 3.55D-05
 ErrMax= 1.46D-04  0.00D+00 EMaxC= 1.00D-01 BMatC= 3.08D-05 BMatP= 2.67D-06
 IDIUse=1 WtCom= 1.00D+00 WtEn= 0.00D+00
 Coeff-Com: -0.464D-01 0.326D-01 0.510D-01 0.133D+00-0.136D+00-0.161D+00
 Coeff-Com: -0.864D-03 0.357D+00 0.177D+00-0.355D-01-0.111D+01-0.180D+01
 Coeff-Com:  0.152D+01 0.155D+01-0.380D+00-0.618D+00 0.334D+00-0.133D+01
 Coeff-Com:  0.169D+01 0.787D+00
 Coeff:     -0.464D-01 0.326D-01 0.510D-01 0.133D+00-0.136D+00-0.161D+00
 Coeff:     -0.864D-03 0.357D+00 0.177D+00-0.355D-01-0.111D+01-0.180D+01
 Coeff:      0.152D+01 0.155D+01-0.380D+00-0.618D+00 0.334D+00-0.133D+01
 Coeff:      0.169D+01 0.787D+00
 Gap=     0.366 Goal=   None    Shift=    0.000
 Gap=     0.120 Goal=   None    Shift=    0.000
 RMSDP=7.77D-06 MaxDP=8.72D-04 DE=-3.19D-05 OVMax= 2.48D-03

 Cycle  32  Pass 1  IDiag  1:
 RMSU=  7.11D-06    CP:  1.00D+00  3.00D+00  3.00D+00  3.00D+00  3.00D+00
                    CP:  3.00D+00  3.00D+00  3.00D+00  3.00D+00 -3.00D+00
                    CP:  9.35D-01
 E= -1866.67129650418     Delta-E=       -0.000007083092 Rises=F Damp=F
 DIIS: error= 6.24D-05 at cycle  32 NSaved=  20.
 NSaved=20 IEnMin=20 EnMin= -1866.67129650418     IErMin=16 ErrMin= 3.55D-05
 ErrMax= 6.24D-05  0.00D+00 EMaxC= 1.00D-01 BMatC= 7.82D-06 BMatP= 2.67D-06
 IDIUse=1 WtCom= 1.00D+00 WtEn= 0.00D+00
 Coeff-Com:  0.114D-01-0.439D-01 0.259D-01-0.358D-01-0.788D-01 0.111D+00
 Coeff-Com:  0.929D-01 0.188D+00-0.112D+00-0.574D+00-0.164D+01 0.118D+01
 Coeff-Com:  0.101D+01-0.302D+00-0.915D-02 0.183D+00-0.165D+01 0.108D+01
 Coeff-Com:  0.498D+00 0.106D+01
 Coeff:      0.114D-01-0.439D-01 0.259D-01-0.358D-01-0.788D-01 0.111D+00
 Coeff:      0.929D-01 0.188D+00-0.112D+00-0.574D+00-0.164D+01 0.118D+01
 Coeff:      0.101D+01-0.302D+00-0.915D-02 0.183D+00-0.165D+01 0.108D+01
 Coeff:      0.498D+00 0.106D+01
 Gap=     0.366 Goal=   None    Shift=    0.000
 Gap=     0.122 Goal=   None    Shift=    0.000
 RMSDP=8.90D-05 MaxDP=5.94D-03 DE=-7.08D-06 OVMax= 5.30D-02

 Cycle  33  Pass 1  IDiag  1:
 RMSU=  1.17D-05    CP:  9.99D-01  3.00D+00  3.00D+00  3.00D+00  3.00D+00
                    CP:  3.00D+00  3.00D+00  3.00D+00  3.00D+00 -3.00D+00
                    CP:  2.74D+00 -3.53D-01
 E= -1866.67132333186     Delta-E=       -0.000026827686 Rises=F Damp=F
 DIIS: error= 1.57D-04 at cycle  33 NSaved=  20.
 NSaved=20 IEnMin=20 EnMin= -1866.67132333186     IErMin=15 ErrMin= 3.55D-05
 ErrMax= 1.57D-04  0.00D+00 EMaxC= 1.00D-01 BMatC= 3.16D-05 BMatP= 2.67D-06
 IDIUse=1 WtCom= 1.00D+00 WtEn= 0.00D+00
 Coeff-Com: -0.312D-01-0.989D-02 0.819D-01-0.154D+00 0.546D-01-0.637D-01
 Coeff-Com:  0.340D+00 0.296D+00-0.777D+00-0.112D+01 0.566D+00 0.667D+00
 Coeff-Com: -0.181D-01 0.462D+00-0.583D-01-0.946D+00 0.603D+00-0.965D+00
 Coeff-Com:  0.129D+01 0.786D+00
 Coeff:     -0.312D-01-0.989D-02 0.819D-01-0.154D+00 0.546D-01-0.637D-01
 Coeff:      0.340D+00 0.296D+00-0.777D+00-0.112D+01 0.566D+00 0.667D+00
 Coeff:     -0.181D-01 0.462D+00-0.583D-01-0.946D+00 0.603D+00-0.965D+00
 Coeff:      0.129D+01 0.786D+00
 Gap=     0.365 Goal=   None    Shift=    0.000
 Gap=     0.122 Goal=   None    Shift=    0.000
 RMSDP=1.81D-05 MaxDP=1.25D-03 DE=-2.68D-05 OVMax= 1.07D-02

 Cycle  34  Pass 1  IDiag  1:
 RMSU=  5.33D-06    CP:  9.99D-01  3.00D+00  3.00D+00  3.00D+00  3.00D+00
                    CP:  3.00D+00  3.00D+00  3.00D+00  3.00D+00 -3.00D+00
                    CP:  3.00D+00 -3.36D-02  1.20D+00
 E= -1866.67133428918     Delta-E=       -0.000010957315 Rises=F Damp=F
 DIIS: error= 1.26D-04 at cycle  34 NSaved=  20.
 NSaved=20 IEnMin=20 EnMin= -1866.67133428918     IErMin=14 ErrMin= 3.55D-05
 ErrMax= 1.26D-04  0.00D+00 EMaxC= 1.00D-01 BMatC= 2.07D-05 BMatP= 2.67D-06
 IDIUse=1 WtCom= 1.00D+00 WtEn= 0.00D+00
 Coeff-Com: -0.622D-01 0.470D-01-0.474D-01 0.294D-01-0.341D-02 0.101D-01
 Coeff-Com:  0.142D+00-0.471D+00 0.232D+00-0.205D+00 0.451D-01-0.376D+00
 Coeff-Com:  0.424D+00 0.242D+00 0.436D-01 0.549D+00-0.167D+01 0.720D+00
 Coeff-Com: -0.376D-01 0.139D+01
 Coeff:     -0.622D-01 0.470D-01-0.474D-01 0.294D-01-0.341D-02 0.101D-01
 Coeff:      0.142D+00-0.471D+00 0.232D+00-0.205D+00 0.451D-01-0.376D+00
 Coeff:      0.424D+00 0.242D+00 0.436D-01 0.549D+00-0.167D+01 0.720D+00
 Coeff:     -0.376D-01 0.139D+01
 Gap=     0.365 Goal=   None    Shift=    0.000
 Gap=     0.123 Goal=   None    Shift=    0.000
 RMSDP=5.40D-05 MaxDP=3.56D-03 DE=-1.10D-05 OVMax= 3.22D-02

 Cycle  35  Pass 1  IDiag  1:
 RMSU=  4.29D-05    CP:  9.99D-01  3.00D+00  3.00D+00  3.00D+00  3.00D+00
                    CP:  3.00D+00  3.00D+00  3.00D+00  3.00D+00 -3.00D+00
                    CP:  3.00D+00 -5.11D-01  1.93D+00  3.00D+00
 E= -1866.67134869097     Delta-E=       -0.000014401788 Rises=F Damp=F
 DIIS: error= 1.74D-04 at cycle  35 NSaved=  20.
 NSaved=20 IEnMin=20 EnMin= -1866.67134869097     IErMin=13 ErrMin= 3.55D-05
 ErrMax= 1.74D-04  0.00D+00 EMaxC= 1.00D-01 BMatC= 3.70D-05 BMatP= 2.67D-06
 IDIUse=1 WtCom= 1.00D+00 WtEn= 0.00D+00
 Coeff-Com:  0.374D-01-0.129D+00 0.262D-01-0.136D-02 0.114D+00 0.182D+00
 Coeff-Com: -0.569D+00-0.115D+00 0.113D+00 0.660D-01-0.244D+00 0.575D+00
 Coeff-Com: -0.941D-01-0.227D+00 0.826D+00-0.127D+01 0.830D+00-0.484D+00
 Coeff-Com:  0.893D+00 0.473D+00
 Coeff:      0.374D-01-0.129D+00 0.262D-01-0.136D-02 0.114D+00 0.182D+00
 Coeff:     -0.569D+00-0.115D+00 0.113D+00 0.660D-01-0.244D+00 0.575D+00
 Coeff:     -0.941D-01-0.227D+00 0.826D+00-0.127D+01 0.830D+00-0.484D+00
 Coeff:      0.893D+00 0.473D+00
 Gap=     0.365 Goal=   None    Shift=    0.000
 Gap=     0.122 Goal=   None    Shift=    0.000
 RMSDP=1.77D-05 MaxDP=1.16D-03 DE=-1.44D-05 OVMax= 1.04D-02

 Cycle  36  Pass 1  IDiag  1:
 RMSU=  8.28D-07    CP:  9.99D-01  3.00D+00  3.00D+00  3.00D+00  3.00D+00
                    CP:  3.00D+00  3.00D+00  3.00D+00  3.00D+00 -3.00D+00
                    CP:  3.00D+00 -1.59D-01  1.67D+00  3.00D+00  5.97D-01
 E= -1866.67134738759     Delta-E=        0.000001303380 Rises=F Damp=F
 DIIS: error= 1.34D-04 at cycle  36 NSaved=  20.
 NSaved=20 IEnMin=19 EnMin= -1866.67134869097     IErMin=12 ErrMin= 3.55D-05
 ErrMax= 1.34D-04  0.00D+00 EMaxC= 1.00D-01 BMatC= 2.24D-05 BMatP= 2.67D-06
 IDIUse=1 WtCom= 1.00D+00 WtEn= 0.00D+00
 Coeff-Com: -0.767D-01 0.641D-01-0.907D-02 0.526D-01 0.285D-01-0.358D+00
 Coeff-Com: -0.232D+00 0.297D+00-0.347D-01-0.283D+00 0.563D+00-0.105D+00
 Coeff-Com: -0.349D+00 0.912D+00-0.930D+00 0.678D+00-0.743D+00 0.255D+00
 Coeff-Com:  0.509D-01 0.122D+01
 Coeff:     -0.767D-01 0.641D-01-0.907D-02 0.526D-01 0.285D-01-0.358D+00
 Coeff:     -0.232D+00 0.297D+00-0.347D-01-0.283D+00 0.563D+00-0.105D+00
 Coeff:     -0.349D+00 0.912D+00-0.930D+00 0.678D+00-0.743D+00 0.255D+00
 Coeff:      0.509D-01 0.122D+01
 Gap=     0.365 Goal=   None    Shift=    0.000
 Gap=     0.122 Goal=   None    Shift=    0.000
 RMSDP=2.68D-05 MaxDP=1.81D-03 DE= 1.30D-06 OVMax= 1.60D-02

 Cycle  37  Pass 1  IDiag  1:
 RMSU=  2.05D-06    CP:  9.99D-01  3.00D+00  3.00D+00  3.00D+00  3.00D+00
                    CP:  3.00D+00  3.00D+00  3.00D+00  3.00D+00 -3.00D+00
                    CP:  3.00D+00 -2.84D-01  2.06D+00  3.00D+00  1.21D+00
                    CP:  1.38D-02
 E= -1866.67135560240     Delta-E=       -0.000008214813 Rises=F Damp=F
 DIIS: error= 1.47D-04 at cycle  37 NSaved=  20.
 NSaved=20 IEnMin=20 EnMin= -1866.67135560240     IErMin=11 ErrMin= 3.55D-05
 ErrMax= 1.47D-04  0.00D+00 EMaxC= 1.00D-01 BMatC= 2.67D-05 BMatP= 2.67D-06
 IDIUse=1 WtCom= 1.00D+00 WtEn= 0.00D+00
 Coeff-Com:  0.130D-01-0.556D-01 0.605D-02 0.217D-01-0.210D+00-0.382D+00
 Coeff-Com:  0.481D+00-0.101D+00-0.736D-01 0.119D+00 0.313D-01-0.630D+00
 Coeff-Com:  0.960D+00-0.541D+00 0.647D+00-0.406D+00-0.384D-01-0.126D+01
 Coeff-Com:  0.590D+00 0.183D+01
 Coeff:      0.130D-01-0.556D-01 0.605D-02 0.217D-01-0.210D+00-0.382D+00
 Coeff:      0.481D+00-0.101D+00-0.736D-01 0.119D+00 0.313D-01-0.630D+00
 Coeff:      0.960D+00-0.541D+00 0.647D+00-0.406D+00-0.384D-01-0.126D+01
 Coeff:      0.590D+00 0.183D+01
 Gap=     0.365 Goal=   None    Shift=    0.000
 Gap=     0.122 Goal=   None    Shift=    0.000
 RMSDP=2.35D-05 MaxDP=1.64D-03 DE=-8.21D-06 OVMax= 1.40D-02

 Cycle  38  Pass 1  IDiag  1:
 RMSU=  5.09D-07    CP:  9.99D-01  3.00D+00  3.00D+00  3.00D+00  3.00D+00
                    CP:  3.00D+00  3.00D+00  3.00D+00  3.00D+00 -3.00D+00
                    CP:  3.00D+00 -1.54D-01  2.43D+00  3.00D+00  1.74D+00
                    CP: -1.06D+00  2.31D+00
 E= -1866.67136519405     Delta-E=       -0.000009591655 Rises=F Damp=F
 DIIS: error= 1.35D-04 at cycle  38 NSaved=  20.
 NSaved=20 IEnMin=20 EnMin= -1866.67136519405     IErMin=10 ErrMin= 3.55D-05
 ErrMax= 1.35D-04  0.00D+00 EMaxC= 1.00D-01 BMatC= 2.25D-05 BMatP= 2.67D-06
 IDIUse=1 WtCom= 1.00D+00 WtEn= 0.00D+00
 Coeff-Com: -0.129D+00 0.110D+00 0.200D+00-0.361D+00-0.538D+00 0.498D+00
 Coeff-Com: -0.670D-01 0.169D+00-0.413D-01 0.428D-01-0.569D+00 0.924D+00
 Coeff-Com: -0.609D+00 0.625D+00-0.253D+00 0.217D+00-0.117D+01 0.118D-01
 Coeff-Com:  0.110D+01 0.838D+00
 Coeff:     -0.129D+00 0.110D+00 0.200D+00-0.361D+00-0.538D+00 0.498D+00
 Coeff:     -0.670D-01 0.169D+00-0.413D-01 0.428D-01-0.569D+00 0.924D+00
 Coeff:     -0.609D+00 0.625D+00-0.253D+00 0.217D+00-0.117D+01 0.118D-01
 Coeff:      0.110D+01 0.838D+00
 Gap=     0.365 Goal=   None    Shift=    0.000
 Gap=     0.122 Goal=   None    Shift=    0.000
 RMSDP=2.65D-06 MaxDP=1.99D-04 DE=-9.59D-06 OVMax= 1.43D-03

 Cycle  39  Pass 1  IDiag  1:
 RMSU=  3.34D-07    CP:  9.99D-01  3.00D+00  3.00D+00  3.00D+00  3.00D+00
                    CP:  3.00D+00  3.00D+00  3.00D+00  3.00D+00 -3.00D+00
                    CP:  3.00D+00 -2.86D-02  2.44D+00  3.00D+00  1.80D+00
                    CP: -1.13D+00  2.85D+00  9.31D-01
 E= -1866.67136768963     Delta-E=       -0.000002495576 Rises=F Damp=F
 DIIS: error= 1.19D-04 at cycle  39 NSaved=  20.
 NSaved=20 IEnMin=20 EnMin= -1866.67136768963     IErMin= 9 ErrMin= 3.55D-05
 ErrMax= 1.19D-04  0.00D+00 EMaxC= 1.00D-01 BMatC= 1.76D-05 BMatP= 2.67D-06
 IDIUse=1 WtCom= 1.00D+00 WtEn= 0.00D+00
 Coeff-Com: -0.530D-01 0.687D-01-0.315D+00-0.140D+00 0.307D+00-0.144D+00
 Coeff-Com: -0.378D-01-0.513D-01 0.261D+00-0.158D+00 0.689D+00-0.870D+00
 Coeff-Com:  0.227D+00-0.257D+00 0.888D+00-0.709D-01 0.146D+00-0.111D+01
 Coeff-Com: -0.864D+00 0.248D+01
 Coeff:     -0.530D-01 0.687D-01-0.315D+00-0.140D+00 0.307D+00-0.144D+00
 Coeff:     -0.378D-01-0.513D-01 0.261D+00-0.158D+00 0.689D+00-0.870D+00
 Coeff:      0.227D+00-0.257D+00 0.888D+00-0.709D-01 0.146D+00-0.111D+01
 Coeff:     -0.864D+00 0.248D+01
 Gap=     0.364 Goal=   None    Shift=    0.000
 Gap=     0.123 Goal=   None    Shift=    0.000
 RMSDP=3.92D-05 MaxDP=2.63D-03 DE=-2.50D-06 OVMax= 2.33D-02

 Cycle  40  Pass 1  IDiag  1:
 RMSU=  3.56D-06    CP:  9.99D-01  3.00D+00  3.00D+00  3.00D+00  3.00D+00
                    CP:  3.00D+00  3.00D+00  3.00D+00  3.00D+00 -3.00D+00
                    CP:  3.00D+00 -2.89D-01  3.00D+00  3.00D+00  2.69D+00
                    CP: -3.00D+00  3.00D+00  2.81D+00  1.45D+00
 E= -1866.67137556016     Delta-E=       -0.000007870532 Rises=F Damp=F
 DIIS: error= 1.62D-04 at cycle  40 NSaved=  20.
 NSaved=20 IEnMin=20 EnMin= -1866.67137556016     IErMin= 8 ErrMin= 3.55D-05
 ErrMax= 1.62D-04  0.00D+00 EMaxC= 1.00D-01 BMatC= 3.24D-05 BMatP= 2.67D-06
 IDIUse=1 WtCom= 1.00D+00 WtEn= 0.00D+00
 Coeff-Com:  0.707D-01-0.338D+00-0.208D+00 0.307D+00-0.114D+00-0.155D-01
 Coeff-Com:  0.562D-01 0.144D+00-0.221D+00 0.726D+00-0.753D+00 0.290D+00
 Coeff-Com: -0.363D+00 0.758D+00-0.762D-01 0.583D+00-0.134D+01-0.139D+01
 Coeff-Com:  0.252D+01 0.362D+00
 Coeff:      0.707D-01-0.338D+00-0.208D+00 0.307D+00-0.114D+00-0.155D-01
 Coeff:      0.562D-01 0.144D+00-0.221D+00 0.726D+00-0.753D+00 0.290D+00
 Coeff:     -0.363D+00 0.758D+00-0.762D-01 0.583D+00-0.134D+01-0.139D+01
 Coeff:      0.252D+01 0.362D+00
 Gap=     0.364 Goal=   None    Shift=    0.000
 Gap=     0.122 Goal=   None    Shift=    0.000
 RMSDP=1.17D-05 MaxDP=7.42D-04 DE=-7.87D-06 OVMax= 6.83D-03

 Cycle  41  Pass 1  IDiag  1:
 Restarting incremental Fock formation.
 E= -1866.67137577316     Delta-E=       -0.000000212994 Rises=F Damp=F
 DIIS: error= 1.31D-04 at cycle  41 NSaved=  20.
 NSaved=20 IEnMin=20 EnMin= -1866.67137577316     IErMin= 7 ErrMin= 3.55D-05
 ErrMax= 1.31D-04  0.00D+00 EMaxC= 1.00D-01 BMatC= 2.10D-05 BMatP= 2.67D-06
 IDIUse=1 WtCom= 1.00D+00 WtEn= 0.00D+00
 Coeff-Com: -0.254D+00-0.260D+00 0.367D+00-0.949D-01-0.889D-01 0.130D+00
 Coeff-Com:  0.122D+00-0.337D+00 0.749D+00-0.614D+00 0.173D+00-0.418D+00
 Coeff-Com:  0.585D+00 0.325D+00 0.668D+00-0.128D+01-0.170D+01 0.205D+01
 Coeff-Com: -0.571D+00 0.146D+01
 Coeff:     -0.254D+00-0.260D+00 0.367D+00-0.949D-01-0.889D-01 0.130D+00
 Coeff:      0.122D+00-0.337D+00 0.749D+00-0.614D+00 0.173D+00-0.418D+00
 Coeff:      0.585D+00 0.325D+00 0.668D+00-0.128D+01-0.170D+01 0.205D+01
 Coeff:     -0.571D+00 0.146D+01
[...]
    32  H(1)               0.00572      25.56851       9.12348       8.52874
    33  H(1)               0.00078       3.49994       1.24887       1.16745
    34  H(1)              -0.00102      -4.55723      -1.62613      -1.52013
    35  H(1)               0.00969      43.33359      15.46250      14.45453
    36  H(1)               0.00595      26.58347       9.48564       8.86729
    37  H(1)               0.00215       9.59393       3.42335       3.20019
    38  H(1)               0.00494      22.07787       7.87793       7.36438
    39  H(1)              -0.00057      -2.56114      -0.91388      -0.85430
    40  H(1)               0.00054       2.40060       0.85659       0.80075
    41  H(1)               0.00216       9.65886       3.44652       3.22185
    42  H(1)               0.00011       0.49477       0.17655       0.16504
    43  H(1)              -0.00009      -0.40561      -0.14473      -0.13530
 --------------------------------------------------------
       Center         ----  Spin Dipole Couplings  ----
                      3XX-RR        3YY-RR        3ZZ-RR
 --------------------------------------------------------
     1   Atom       -0.002241     -0.013317      0.015558
     2   Atom       -0.056130     -0.040315      0.096446
     3   Atom       -0.044122      0.004752      0.039369
     4   Atom       -0.556582      0.190233      0.366348
     5   Atom        0.008556      0.002877     -0.011433
     6   Atom        0.047725     -0.076660      0.028935
     7   Atom       -0.262241      0.075734      0.186507
     8   Atom       -0.022475      0.013505      0.008970
     9   Atom       -0.029391      0.048238     -0.018847
    10   Atom       -0.005710      0.011310     -0.005600
    11   Atom        0.039403     -0.003418     -0.035985
    12   Atom       -0.171126      0.065845      0.105281
    13   Atom        0.032150     -0.017574     -0.014575
    14   Atom        0.000795     -0.000316     -0.000479
    15   Atom       -0.002719      0.004570     -0.001851
    16   Atom        0.020510     -0.012173     -0.008337
    17   Atom        0.001917     -0.000738     -0.001179
    18   Atom        0.003130     -0.002108     -0.001022
    19   Atom        0.000685     -0.000191     -0.000494
    20   Atom        0.000951     -0.000455     -0.000496
    21   Atom        0.000591     -0.000288     -0.000304
    22   Atom        0.000877     -0.000450     -0.000427
    23   Atom        0.001155     -0.000567     -0.000588
    24   Atom        0.001472     -0.000372     -0.001099
    25   Atom        0.000527     -0.000291     -0.000236
    26   Atom        0.004197     -0.002437     -0.001761
    27   Atom       -0.001450      0.003936     -0.002485
    28   Atom        0.069005     -0.056338     -0.012667
    29   Atom       -0.390125      0.303169      0.086956
    30   Atom        0.004001     -0.003019     -0.000982
    31   Atom       -0.001552      0.000751      0.000801
    32   Atom       -0.001709     -0.000500      0.002209
    33   Atom        0.004777     -0.009530      0.004753
    34   Atom       -0.003901      0.005411     -0.001510
    35   Atom        0.014217     -0.007191     -0.007026
    36   Atom       -0.001788      0.005860     -0.004072
    37   Atom        0.000017     -0.001640      0.001623
    38   Atom        0.004441     -0.003083     -0.001359
    39   Atom       -0.001296      0.001368     -0.000072
    40   Atom        0.001050      0.002469     -0.003519
    41   Atom       -0.001567      0.001651     -0.000084
    42   Atom        0.000088      0.000636     -0.000724
    43   Atom       -0.001251      0.001216      0.000035
 --------------------------------------------------------
                        XY            XZ            YZ
 --------------------------------------------------------
     1   Atom        0.001304      0.017398      0.001744
     2   Atom       -0.015398      0.038774     -0.064894
     3   Atom        0.008139      0.004596     -0.065981
     4   Atom        0.063604     -0.067130     -0.830298
     5   Atom       -0.003514      0.001663      0.046780
     6   Atom       -0.023894      0.017865      0.080057
     7   Atom        0.018693     -0.019917     -0.379185
     8   Atom        0.003814     -0.007142     -0.025594
     9   Atom        0.001525     -0.000438     -0.027812
    10   Atom       -0.002693     -0.000651      0.003243
    11   Atom        0.009328      0.001013      0.040248
    12   Atom       -0.072604      0.088857     -0.284658
    13   Atom       -0.006271      0.008264      0.045027
    14   Atom        0.000976      0.001864      0.001987
    15   Atom       -0.005029     -0.003852      0.004444
    16   Atom        0.002837      0.011584      0.000622
    17   Atom        0.000358      0.000112      0.001416
    18   Atom        0.000260     -0.002651      0.000826
    19   Atom       -0.000233      0.000301      0.000379
    20   Atom        0.000000      0.000044      0.000130
    21   Atom        0.000041     -0.000014      0.000054
    22   Atom       -0.000234      0.000291      0.000122
    23   Atom        0.000043      0.000152      0.000141
    24   Atom        0.001805     -0.001297     -0.000289
    25   Atom        0.000957     -0.000844     -0.000368
    26   Atom        0.001949     -0.002938     -0.000633
    27   Atom        0.004023     -0.002142     -0.001668
    28   Atom       -0.012313     -0.016948      0.103401
    29   Atom       -0.300021      0.245514     -0.672066
    30   Atom        0.001557      0.001814      0.000043
    31   Atom        0.000778      0.002487      0.002608
    32   Atom        0.000195      0.002200     -0.002667
    33   Atom       -0.000689     -0.002002     -0.003038
    34   Atom       -0.007381      0.004141     -0.001385
    35   Atom        0.001901     -0.004240      0.001310
    36   Atom       -0.000277     -0.001772      0.008738
    37   Atom        0.001605      0.002196      0.004204
    38   Atom       -0.001587     -0.004178      0.002589
    39   Atom       -0.002434      0.003923     -0.001108
    40   Atom        0.000608     -0.002357     -0.000984
    41   Atom       -0.000623     -0.000048     -0.000673
    42   Atom       -0.001326     -0.001309      0.001023
    43   Atom       -0.000099      0.000593      0.001539
 --------------------------------------------------------


 ---------------------------------------------------------------------------------
              Anisotropic Spin Dipole Couplings in Principal Axis System
 ---------------------------------------------------------------------------------

       Atom             a.u.   MegaHertz   Gauss  10(-4) cm-1        Axes

              Baa    -0.0135    -1.812    -0.646    -0.604 -0.2914  0.9493  0.1175
     1 C(13)  Bbb    -0.0128    -1.720    -0.614    -0.574  0.8021  0.3095 -0.5108
              Bcc     0.0263     3.532     1.260     1.178  0.5213  0.0546  0.8516
 
              Baa    -0.0662    -8.885    -3.170    -2.964 -0.0778  0.9195  0.3854
     2 C(13)  Bbb    -0.0654    -8.776    -3.131    -2.927  0.9731  0.1542 -0.1713
              Bcc     0.1316    17.660     6.302     5.891  0.2169 -0.3617  0.9067
 
              Baa    -0.0544    -7.307    -2.607    -2.437  0.6676 -0.5932 -0.4499
     3 C(13)  Bbb    -0.0358    -4.809    -1.716    -1.604  0.7444  0.5238  0.4141
              Bcc     0.0903    12.116     4.323     4.041 -0.0100 -0.6113  0.7913
 
              Baa    -0.5626   -21.700    -7.743    -7.238  0.9272 -0.3101 -0.2102
     4 N(14)  Bbb    -0.5557   -21.432    -7.648    -7.149  0.3706  0.6766  0.6363
              Bcc     1.1183    43.132    15.391    14.387 -0.0551 -0.6678  0.7423
 
              Baa    -0.0518    -6.953    -2.481    -2.319 -0.0587 -0.6511  0.7567
     5 C(13)  Bbb     0.0087     1.166     0.416     0.389  0.9972 -0.0034  0.0745
              Bcc     0.0431     5.786     2.065     1.930 -0.0459  0.7590  0.6495
 
              Baa    -0.1248     9.031     3.223     3.013  0.1687  0.8661 -0.4706
     6 O(17)  Bbb     0.0518    -3.751    -1.338    -1.251  0.9635 -0.2455 -0.1064
              Bcc     0.0730    -5.280    -1.884    -1.761  0.2077  0.4355  0.8759
 
              Baa    -0.2633   -10.155    -3.624    -3.387  0.9945 -0.0976 -0.0382
     7 N(14)  Bbb    -0.2520    -9.718    -3.468    -3.242  0.0987  0.7505  0.6535
              Bcc     0.5153    19.873     7.091     6.629 -0.0351 -0.6536  0.7560
 
              Baa    -0.0242    -3.244    -1.158    -1.082  0.9568  0.0909  0.2763
     8 C(13)  Bbb    -0.0137    -1.842    -0.657    -0.614 -0.2623  0.6802  0.6845
              Bcc     0.0379     5.086     1.815     1.696  0.1258  0.7274 -0.6746
 
              Baa    -0.0294    -3.950    -1.410    -1.318  0.9826 -0.0795 -0.1681
     9 C(13)  Bbb    -0.0289    -3.872    -1.382    -1.292  0.1850  0.3302  0.9256
              Bcc     0.0583     7.823     2.791     2.609  0.0181  0.9405 -0.3392
 
              Baa    -0.0063    -0.848    -0.303    -0.283  0.6179 -0.0499  0.7847
    10 C(13)  Bbb    -0.0060    -0.807    -0.288    -0.269  0.7715  0.2309 -0.5928
              Bcc     0.0123     1.655     0.591     0.552 -0.1516  0.9717  0.1812
 
              Baa    -0.0633    -8.495    -3.031    -2.834  0.0429 -0.5619  0.8261
    11 C(13)  Bbb     0.0202     2.707     0.966     0.903 -0.3923  0.7510  0.5311
              Bcc     0.0431     5.788     2.065     1.931  0.9188  0.3469  0.1882
 
              Baa    -0.2049    14.828     5.291     4.946 -0.5606  0.5239  0.6413
    12 O(17)  Bbb    -0.1892    13.689     4.884     4.566  0.8039  0.5300  0.2698
              Bcc     0.3941   -28.517   -10.176    -9.512  0.1986 -0.6668  0.7183
 
              Baa    -0.0622    -2.400    -0.857    -0.801  0.1080  0.7133 -0.6925
    13 N(14)  Bbb     0.0285     1.098     0.392     0.366 -0.3091  0.6862  0.6585
              Bcc     0.0338     1.303     0.465     0.435  0.9449  0.1429  0.2946
 
              Baa    -0.0026    -0.345    -0.123    -0.115 -0.2651 -0.5702  0.7776
    14 C(13)  Bbb    -0.0007    -0.092    -0.033    -0.031  0.7215 -0.6523 -0.2323
              Bcc     0.0033     0.437     0.156     0.146  0.6397  0.4994  0.5843
 
              Baa    -0.0063    -3.154    -1.126    -1.052  0.8152  0.1485  0.5599
    15 F(19)  Bbb    -0.0037    -1.835    -0.655    -0.612 -0.3718 -0.6070  0.7024
              Bcc     0.0099     4.989     1.780     1.664 -0.4442  0.7807  0.4396
 
              Baa    -0.0128    -6.408    -2.286    -2.137 -0.2880  0.6973  0.6564
    16 F(19)  Bbb    -0.0121    -6.052    -2.160    -2.019  0.1792  0.7126 -0.6783
              Bcc     0.0248    12.460     4.446     4.156  0.9407  0.0777  0.3302
 
              Baa    -0.0024    -0.322    -0.115    -0.107  0.0347 -0.6532  0.7564
    17 C(13)  Bbb     0.0004     0.053     0.019     0.018 -0.2201  0.7333  0.6433
              Bcc     0.0020     0.268     0.096     0.090  0.9749  0.1888  0.1183
 
              Baa    -0.0031    -1.544    -0.551    -0.515  0.3172 -0.6640  0.6771
    18 F(19)  Bbb    -0.0013    -0.678    -0.242    -0.226  0.3057  0.7475  0.5898
              Bcc     0.0044     2.222     0.793     0.741  0.8977 -0.0199 -0.4401
 
              Baa    -0.0008     0.061     0.022     0.020 -0.2412 -0.5496  0.7999
    19 O(17)  Bbb     0.0001    -0.005    -0.002    -0.002  0.0298  0.8196  0.5721
              Bcc     0.0008    -0.056    -0.020    -0.019  0.9700 -0.1619  0.1813
 
              Baa    -0.0006    -0.082    -0.029    -0.027 -0.0215 -0.6470  0.7622
    20 C(13)  Bbb    -0.0003    -0.046    -0.016    -0.015 -0.0219  0.7625  0.6466
              Bcc     0.0010     0.128     0.046     0.043  0.9995  0.0027  0.0305
 
              Baa    -0.0004    -0.176    -0.063    -0.059  0.0399 -0.6597  0.7505
    21 F(19)  Bbb    -0.0002    -0.122    -0.043    -0.041 -0.0261  0.7501  0.6608
              Bcc     0.0006     0.298     0.106     0.099  0.9989  0.0459 -0.0127
 
              Baa    -0.0007    -0.327    -0.117    -0.109  0.2361  0.6904 -0.6838
    22 F(19)  Bbb    -0.0003    -0.159    -0.057    -0.053 -0.0325  0.7089  0.7046
              Bcc     0.0010     0.487     0.174     0.162  0.9712 -0.1441  0.1899
 
              Baa    -0.0007    -0.363    -0.130    -0.121 -0.0454 -0.6645  0.7459
    23 F(19)  Bbb    -0.0004    -0.224    -0.080    -0.075 -0.0827  0.7466  0.6601
              Bcc     0.0012     0.588     0.210     0.196  0.9955  0.0317  0.0889
 
              Baa    -0.0019    -0.254    -0.091    -0.085  0.5313 -0.4997  0.6841
    24 C(13)  Bbb    -0.0011    -0.144    -0.051    -0.048 -0.1750  0.7253  0.6658
              Bcc     0.0030     0.398     0.142     0.133  0.8289  0.4735 -0.2979
 
              Baa    -0.0010    -0.497    -0.177    -0.166 -0.6363  0.6676 -0.3866
    25 F(19)  Bbb    -0.0006    -0.310    -0.111    -0.103  0.1139  0.5769  0.8088
              Bcc     0.0016     0.807     0.288     0.269  0.7630  0.4706 -0.4431
 
              Baa    -0.0031    -1.558    -0.556    -0.520 -0.4262  0.6543 -0.6246
    26 F(19)  Bbb    -0.0028    -1.407    -0.502    -0.469  0.0900  0.7177  0.6905
              Bcc     0.0059     2.965     1.058     0.989  0.9001  0.2381 -0.3648
 
              Baa    -0.0045    -2.244    -0.801    -0.749  0.7533 -0.2390  0.6127
    27 F(19)  Bbb    -0.0023    -1.150    -0.410    -0.383 -0.4506  0.4910  0.7456
              Bcc     0.0068     3.394     1.211     1.132  0.4790  0.8378 -0.2622
 
              Baa    -0.1402   -18.812    -6.713    -6.275 -0.0054  0.7764 -0.6302
    28 C(13)  Bbb     0.0491     6.595     2.353     2.200  0.7252  0.4370  0.5321
              Bcc     0.0910    12.217     4.359     4.075  0.6886 -0.4542 -0.5653
 
              Baa    -0.5026    36.368    12.977    12.131  0.8823  0.4483  0.1436
    29 O(17)  Bbb    -0.4824    34.907    12.456    11.644 -0.3847  0.5108  0.7688
              Bcc     0.9850   -71.275   -25.433   -23.775 -0.2713  0.7336 -0.6231
 
              Baa    -0.0034    -1.816    -0.648    -0.606 -0.2412  0.9566  0.1635
    30 H(1)   Bbb    -0.0015    -0.785    -0.280    -0.262 -0.2488 -0.2237  0.9424
              Bcc     0.0049     2.601     0.928     0.868  0.9381  0.1866  0.2919
 
              Baa    -0.0033    -1.770    -0.631    -0.590  0.7517  0.2479 -0.6111
    31 H(1)   Bbb    -0.0010    -0.542    -0.193    -0.181 -0.5404  0.7627 -0.3553
              Bcc     0.0043     2.311     0.825     0.771  0.3780  0.5973  0.7073
 
              Baa    -0.0035    -1.844    -0.658    -0.615  0.6973 -0.5051 -0.5086
    32 H(1)   Bbb    -0.0009    -0.496    -0.177    -0.165  0.6553  0.7367  0.1667
              Bcc     0.0044     2.340     0.835     0.780  0.2905 -0.4496  0.8447
 
              Baa    -0.0102    -5.457    -1.947    -1.820  0.0725  0.9755  0.2075
    33 H(1)   Bbb     0.0033     1.748     0.624     0.583  0.7530 -0.1900  0.6301
              Bcc     0.0070     3.709     1.323     1.237 -0.6541 -0.1106  0.7483
 
              Baa    -0.0092    -4.907    -1.751    -1.637  0.8389  0.3876 -0.3820
    34 H(1)   Bbb    -0.0012    -0.634    -0.226    -0.212  0.2088  0.4190  0.8837
              Bcc     0.0104     5.541     1.977     1.848 -0.5026  0.8211 -0.2706
 
              Baa    -0.0092    -4.928    -1.759    -1.644  0.1861 -0.6465  0.7399
    35 H(1)   Bbb    -0.0059    -3.155    -1.126    -1.052  0.0646  0.7594  0.6474
              Bcc     0.0151     8.083     2.884     2.696  0.9804  0.0727 -0.1831
 
              Baa    -0.0094    -5.023    -1.792    -1.675  0.1811 -0.4859  0.8551
    36 H(1)   Bbb    -0.0016    -0.871    -0.311    -0.290  0.9795  0.1673 -0.1123
              Bcc     0.0110     5.893     2.103     1.966 -0.0884  0.8579  0.5062
 
              Baa    -0.0045    -2.411    -0.860    -0.804 -0.0225  0.8288 -0.5591
    37 H(1)   Bbb    -0.0013    -0.674    -0.240    -0.225  0.9042 -0.2217 -0.3650
              Bcc     0.0058     3.085     1.101     1.029  0.4265  0.5138  0.7444
 
              Baa    -0.0052    -2.753    -0.983    -0.918 -0.1784  0.7110 -0.6801
    38 H(1)   Bbb    -0.0021    -1.139    -0.407    -0.380  0.5105  0.6578  0.5538
              Bcc     0.0073     3.893     1.389     1.298  0.8411 -0.2484 -0.4804
 
              Baa    -0.0049    -2.606    -0.930    -0.869  0.7815  0.1994 -0.5911
    39 H(1)   Bbb    -0.0001    -0.050    -0.018    -0.017  0.2220  0.7966  0.5623
              Bcc     0.0050     2.655     0.948     0.886  0.5830 -0.5707  0.5783
 
              Baa    -0.0046    -2.444    -0.872    -0.815  0.3754  0.0963  0.9218
    40 H(1)   Bbb     0.0013     0.705     0.251     0.235  0.7549 -0.6089 -0.2438
              Bcc     0.0033     1.740     0.621     0.580  0.5378  0.7874 -0.3013
 
              Baa    -0.0017    -0.909    -0.324    -0.303  0.9725  0.2033  0.1135
    41 H(1)   Bbb    -0.0003    -0.145    -0.052    -0.048 -0.1683  0.2765  0.9462
              Bcc     0.0020     1.054     0.376     0.351 -0.1609  0.9393 -0.3031
 
              Baa    -0.0017    -0.901    -0.322    -0.301  0.5786 -0.0287  0.8151
    42 H(1)   Bbb    -0.0008    -0.449    -0.160    -0.150  0.5525  0.7489 -0.3659
              Bcc     0.0025     1.350     0.482     0.450 -0.5999  0.6620  0.4492
 
              Baa    -0.0017    -0.909    -0.324    -0.303  0.7795  0.3127 -0.5428
    43 H(1)   Bbb    -0.0006    -0.315    -0.112    -0.105  0.6221 -0.4880  0.6123
              Bcc     0.0023     1.223     0.437     0.408  0.0734  0.8149  0.5749
 

 ---------------------------------------------------------------------------------

 No NMR shielding tensors so no spin-rotation constants.
 Leave Link  601 at Sun Mar  3 18:08:15 2024, MaxMem=  5368709120 cpu:         7.3
 (Enter /home/k0335/k033513/app/g09/l9999.exe)
 1\1\GINC-C24U16N1\SP\UCAM-B3LYP\6-31G(d,p)\C13H14F9N3O4(1+,2)\K033513\
 03-Mar-2024\0\\#p CAM-B3LYP/6-31G(d,p) SCRF=(PCM,Solvent=Generic,Read)
  NoSymm out=wfn\\Title A687474390_p1\\1,2\C,0,-3.709876,-1.928983,-3.0
 0899\C,0,-2.672065,-1.197869,-2.173452\C,0,-2.369658,-1.948995,-0.8740
 04\N,0,-1.367434,-1.253632,-0.065658\C,0,-1.798587,-0.252497,0.77993\O
 ,0,-2.990244,0.037402,0.8964\N,0,-0.809353,0.42927,1.458277\C,0,-1.207
 568,1.548801,2.312602\C,0,-1.318571,2.853862,1.52015\C,0,-1.729667,4.0
 12904,2.413073\C,0,0.535844,0.203389,1.261838\O,0,1.38913,0.955557,1.7
 29341\N,0,0.874,-0.878387,0.49075\C,0,2.290925,-1.144297,0.301325\F,0,
 2.84907,-1.159671,1.553137\F,0,2.481937,-2.430746,-0.118902\C,0,3.1342
 63,-0.198902,-0.609137\F,0,3.135096,1.08175,-0.137685\O,0,4.516909,-0.
 558236,-0.782635\C,0,5.220554,-0.694119,0.422829\F,0,6.535508,-0.55932
 4,0.163136\F,0,5.011337,-1.924918,0.919676\F,0,4.86188,0.236581,1.3188
 9\C,0,2.505154,-0.172403,-1.997333\F,0,3.19265,0.656726,-2.826037\F,0,
 2.496752,-1.384324,-2.589209\F,0,1.233696,0.293967,-1.969343\C,0,-0.03
 6418,-1.50955,-0.314362\O,0,0.314695,-2.232089,-1.2458\H,0,-4.652274,-
 2.031875,-2.46165\H,0,-3.359397,-2.929411,-3.28211\H,0,-3.911631,-1.37
 6113,-3.93176\H,0,-1.754603,-1.077389,-2.761384\H,0,-3.03534,-0.188195
 ,-1.948781\H,0,-3.288971,-2.064286,-0.287402\H,0,-2.009395,-2.959366,-
 1.102297\H,0,-0.475169,1.664205,3.120639\H,0,-2.169037,1.317442,2.7864
 59\H,0,-2.051491,2.742366,0.712475\H,0,-0.359341,3.087492,1.043475\H,0
 ,-1.803287,4.93481,1.827802\H,0,-2.704006,3.825297,2.875407\H,0,-0.996
 019,4.173757,3.209424\\Version=ES64L-G09RevD.01\HF=-1866.6714271\S2=0.
 777072\S2-1=0.\S2A=0.750512\RMSD=8.759e-09\Dipole=-5.227106,-0.3679772
 ,0.4455553\Quadrupole=-1.9932007,2.0294629,-0.0362622,5.1445184,4.2409
 179,6.2751237\PG=C01 [X(C13H14F9N3O4)]\\@

 Writing a WFN file to "A687474390/A687474390_p1.wfn"


 This summer one third of the nation will be ill-housed
 ill-nourished and ill-clad. Only they call it a vacation.
 -- Jonas Salk
 Job cpu time:       0 days  1 hours 23 minutes  2.7 seconds.
 File lengths (MBytes):  RWF=    409 Int=      0 D2E=      0 Chk=     14 Scr=      1
 Normal termination of Gaussian 09 at Sun Mar  3 18:08:15 2024.
