 Entering Gaussian System, Link 0=g09
 Initial command:
 /home/k0335/k033513/app/g09/l1.exe "/home/k0335/k033513/app/g09/scratch/Gau-347615.inp" -scrdir="/home/k0335/k033513/app/g09/scratch/"
 Default is to use a total of  36 processors:
                               36 via shared-memory
                                1 via Linda
 Entering Link 1 = /home/k0335/k033513/app/g09/l1.exe PID=    347616.
  
 Copyright (c) 1988,1990,1992,1993,1995,1998,2003,2009,2013,
            Gaussian, Inc.  All Rights Reserved.
  
 This is part of the Gaussian(R) 09 program.  It is based on
 the Gaussian(R) 03 system (copyright 2003, Gaussian, Inc.),
 the Gaussian(R) 98 system (copyright 1998, Gaussian, Inc.),
 the Gaussian(R) 94 system (copyright 1995, Gaussian, Inc.),
 the Gaussian 92(TM) system (copyright 1992, Gaussian, Inc.),
 the Gaussian 90(TM) system (copyright 1990, Gaussian, Inc.),
 the Gaussian 88(TM) system (copyright 1988, Gaussian, Inc.),
 the Gaussian 86(TM) system (copyright 1986, Carnegie Mellon
 University), and the Gaussian 82(TM) system (copyright 1983,
 Carnegie Mellon University). Gaussian is a federally registered
 trademark of Gaussian, Inc.
  
 This software contains proprietary and confidential information,
 including trade secrets, belonging to Gaussian, Inc.
  
 This software is provided under written license and may be
 used, copied, transmitted, or stored only in accord with that
 written license.
  
 The following legend is applicable only to US Government
 contracts under FAR:
  
                    RESTRICTED RIGHTS LEGEND
  
 Use, reproduction and disclosure by the US Government is
 subject to restrictions as set forth in subparagraphs (a)
 and (c) of the Commercial Computer Software - Restricted
 Rights clause in FAR 52.227-19.
  
 Gaussian, Inc.
 340 Quinnipiac St., Bldg. 40, Wallingford CT 06492
  
  
 ---------------------------------------------------------------
 Warning -- This program may not be used in any manner that
 competes with the business of Gaussian, Inc. or will provide
 assistance to any competitor of Gaussian, Inc.  The licensee
 of this program is prohibited from giving any competitor of
 Gaussian, Inc. access to this program.  By using this program,
 the user acknowledges that Gaussian, Inc. is engaged in the
 business of creating and licensing software in the field of
 computational chemistry and represents and warrants to the
 licensee that it is not a competitor of Gaussian, Inc. and that
 it will not use this program in any manner prohibited above.
 ---------------------------------------------------------------
  

 Cite this work as:
 Gaussian 09, Revision D.01,
 M. J. Frisch, G. W. Trucks, H. B. Schlegel, G. E. Scuseria, 
 M. A. Robb, J. R. Cheeseman, G. Scalmani, V. Barone, B. Mennucci, 
 G. A. Petersson, H. Nakatsuji, M. Caricato, X. Li, H. P. Hratchian, 
 A. F. Izmaylov, J. Bloino, G. Zheng, J. L. Sonnenberg, M. Hada, 
 M. Ehara, K. Toyota, R. Fukuda, J. Hasegawa, M. Ishida, T. Nakajima, 
 Y. Honda, O. Kitao, H. Nakai, T. Vreven, J. A. Montgomery, Jr., 
 J. E. Peralta, F. Ogliaro, M. Bearpark, J. J. Heyd, E. Brothers, 
 K. N. Kudin, V. N. Staroverov, T. Keith, R. Kobayashi, J. Normand, 
 K. Raghavachari, A. Rendell, J. C. Burant, S. S. Iyengar, J. Tomasi, 
 M. Cossi, N. Rega, J. M. Millam, M. Klene, J. E. Knox, J. B. Cross, 
 V. Bakken, C. Adamo, J. Jaramillo, R. Gomperts, R. E. Stratmann, 
 O. Yazyev, A. J. Austin, R. Cammi, C. Pomelli, J. W. Ochterski, 
 R. L. Martin, K. Morokuma, V. G. Zakrzewski, G. A. Voth, 
 P. Salvador, J. J. Dannenberg, S. Dapprich, A. D. Daniels, 
 O. Farkas, J. B. Foresman, J. V. Ortiz, J. Cioslowski, 
 and D. J. Fox, Gaussian, Inc., Wallingford CT, 2013.
 
 ******************************************
 Gaussian 09:  ES64L-G09RevD.01 24-Apr-2013
                 3-Mar-2024 
 ******************************************
 %nprocshared=24
 Will use up to   24 processors via shared memory.
 %mem=40GB
 %rwf=A1635117082/A1635117082_p1.rwf
 %nosave
 %chk=A1635117082/A1635117082_p1.chk
 ----------------------------------------------------------------------
 #p CAM-B3LYP/6-31G(d,p) SCRF=(PCM,Solvent=Generic,Read) NoSymm out=wfn
 ----------------------------------------------------------------------
 1/38=1,40=2/1;
 2/12=2,15=1,17=6,18=5,40=1/2;
 3/5=1,6=6,7=101,11=2,16=1,25=1,30=1,70=2203,72=-2,74=-40/1,2,3;
 4//1;
 5/5=2,38=5/2;
 6/7=2,8=2,9=2,10=2,28=1/1;
 99/5=1,6=100,9=1/99;
 Leave Link    1 at Sun Mar  3 17:33:35 2024, MaxMem=  5368709120 cpu:         0.8
 (Enter /home/k0335/k033513/app/g09/l101.exe)
 --------------------
 Title A1635117082_p1
 --------------------
 Symbolic Z-matrix:
 Charge =  1 Multiplicity = 2
 C                    -1.89564  -5.58047  -0.21787 
 C                    -2.65797  -4.314    -0.57529 
 C                    -1.76654  -3.07595  -0.68117 
 C                    -1.13459  -2.66702   0.65283 
 N                    -0.38067  -1.41938   0.51101 
 C                    -1.03964  -0.2344    0.7857 
 O                    -2.1983   -0.18458   1.18732 
 N                    -0.31609   0.90704   0.58073 
 C                    -0.96887   2.19893   0.7262 
 F                    -1.68024   2.24333   1.8794 
 F                     0.05575   3.09178   0.93395 
 C                    -1.79642   2.75818  -0.45982 
 F                    -1.0078    2.58867  -1.5887 
 O                    -1.989     4.1833   -0.45274 
 C                    -2.57684   4.69142   0.71829 
 F                    -3.64194   3.96466   1.07126 
 F                    -2.97399   5.95444   0.48043 
 F                    -1.67748   4.70326   1.71262 
 C                    -3.07777   1.95872  -0.69974 
 F                    -2.79706   0.7299   -1.19955 
 F                    -3.84813   1.79929   0.3888 
 F                    -3.84417   2.57579  -1.63815 
 C                     0.83166   0.82677  -0.2654 
 N                     1.63793  -0.30558   0.06219 
 C                     3.04257  -0.40184  -0.3448 
 F                     3.10687  -1.06299  -1.52875 
 F                     3.64874  -1.21512   0.57711 
 C                     3.94919   0.86275  -0.40459 
 F                     5.26909   0.4933   -0.32554 
 O                     3.74037   1.83703   0.62544 
 C                     3.96637   1.32314   1.91818 
 F                     2.90346   0.59226   2.29173 
 F                     5.07996   0.58156   1.98137 
 F                     4.085     2.36194   2.76596 
 C                     3.78495   1.50506  -1.78297 
 F                     4.51449   2.64498  -1.8795 
 F                     4.18642   0.70103  -2.79078 
 F                     2.50213   1.85029  -2.04151 
 C                     0.97319  -1.51253   0.2036 
 O                     1.53818  -2.59597   0.07495 
 H                    -1.47865  -5.52656   0.79194 
 H                    -2.56658  -6.44485  -0.25285 
 H                    -1.07692  -5.75855  -0.92218 
 H                    -3.15483  -4.4676   -1.54067 
 H                    -3.44884  -4.1427    0.16416 
 H                    -0.98151  -3.24763  -1.42808 
 H                    -2.37448  -2.245    -1.06122 
 H                    -0.4669   -3.45505   1.01665 
 H                    -1.91681  -2.54228   1.41048 
 H                     0.50484   0.7362   -1.30719 
 H                     1.41354   1.73505  -0.12325 
 
 NAtoms=     51 NQM=       51 NQMF=       0 NMMI=      0 NMMIF=      0
                NMic=       0 NMicF=      0.
                    Isotopes and Nuclear Properties:
 (Nuclear quadrupole moments (NQMom) in fm**2, nuclear magnetic moments (NMagM)
  in nuclear magnetons)

  Atom         1           2           3           4           5           6           7           8           9          10
 IAtWgt=          12          12          12          12          14          12          16          14          12          19
 AtmWgt=  12.0000000  12.0000000  12.0000000  12.0000000  14.0030740  12.0000000  15.9949146  14.0030740  12.0000000  18.9984033
 NucSpn=           0           0           0           0           2           0           0           2           0           1
 AtZEff=   0.0000000   0.0000000   0.0000000   0.0000000   0.0000000   0.0000000   0.0000000   0.0000000   0.0000000   0.0000000
 NQMom=    0.0000000   0.0000000   0.0000000   0.0000000   2.0440000   0.0000000   0.0000000   2.0440000   0.0000000   0.0000000
 NMagM=    0.0000000   0.0000000   0.0000000   0.0000000   0.4037610   0.0000000   0.0000000   0.4037610   0.0000000   2.6288670
 AtZNuc=   6.0000000   6.0000000   6.0000000   6.0000000   7.0000000   6.0000000   8.0000000   7.0000000   6.0000000   9.0000000

  Atom        11          12          13          14          15          16          17          18          19          20
 IAtWgt=          19          12          19          16          12          19          19          19          12          19
 AtmWgt=  18.9984033  12.0000000  18.9984033  15.9949146  12.0000000  18.9984033  18.9984033  18.9984033  12.0000000  18.9984033
 NucSpn=           1           0           1           0           0           1           1           1           0           1
 AtZEff=   0.0000000   0.0000000   0.0000000   0.0000000   0.0000000   0.0000000   0.0000000   0.0000000   0.0000000   0.0000000
 NQMom=    0.0000000   0.0000000   0.0000000   0.0000000   0.0000000   0.0000000   0.0000000   0.0000000   0.0000000   0.0000000
 NMagM=    2.6288670   0.0000000   2.6288670   0.0000000   0.0000000   2.6288670   2.6288670   2.6288670   0.0000000   2.6288670
 AtZNuc=   9.0000000   6.0000000   9.0000000   8.0000000   6.0000000   9.0000000   9.0000000   9.0000000   6.0000000   9.0000000

  Atom        21          22          23          24          25          26          27          28          29          30
 IAtWgt=          19          19          12          14          12          19          19          12          19          16
 AtmWgt=  18.9984033  18.9984033  12.0000000  14.0030740  12.0000000  18.9984033  18.9984033  12.0000000  18.9984033  15.9949146
 NucSpn=           1           1           0           2           0           1           1           0           1           0
 AtZEff=   0.0000000   0.0000000   0.0000000   0.0000000   0.0000000   0.0000000   0.0000000   0.0000000   0.0000000   0.0000000
 NQMom=    0.0000000   0.0000000   0.0000000   2.0440000   0.0000000   0.0000000   0.0000000   0.0000000   0.0000000   0.0000000
 NMagM=    2.6288670   2.6288670   0.0000000   0.4037610   0.0000000   2.6288670   2.6288670   0.0000000   2.6288670   0.0000000
 AtZNuc=   9.0000000   9.0000000   6.0000000   7.0000000   6.0000000   9.0000000   9.0000000   6.0000000   9.0000000   8.0000000

  Atom        31          32          33          34          35          36          37          38          39          40
 IAtWgt=          12          19          19          19          12          19          19          19          12          16
 AtmWgt=  12.0000000  18.9984033  18.9984033  18.9984033  12.0000000  18.9984033  18.9984033  18.9984033  12.0000000  15.9949146
 NucSpn=           0           1           1           1           0           1           1           1           0           0
 AtZEff=   0.0000000   0.0000000   0.0000000   0.0000000   0.0000000   0.0000000   0.0000000   0.0000000   0.0000000   0.0000000
 NQMom=    0.0000000   0.0000000   0.0000000   0.0000000   0.0000000   0.0000000   0.0000000   0.0000000   0.0000000   0.0000000
 NMagM=    0.0000000   2.6288670   2.6288670   2.6288670   0.0000000   2.6288670   2.6288670   2.6288670   0.0000000   0.0000000
 AtZNuc=   6.0000000   9.0000000   9.0000000   9.0000000   6.0000000   9.0000000   9.0000000   9.0000000   6.0000000   8.0000000

  Atom        41          42          43          44          45          46          47          48          49          50
 IAtWgt=           1           1           1           1           1           1           1           1           1           1
 AtmWgt=   1.0078250   1.0078250   1.0078250   1.0078250   1.0078250   1.0078250   1.0078250   1.0078250   1.0078250   1.0078250
 NucSpn=           1           1           1           1           1           1           1           1           1           1
 AtZEff=   0.0000000   0.0000000   0.0000000   0.0000000   0.0000000   0.0000000   0.0000000   0.0000000   0.0000000   0.0000000
 NQMom=    0.0000000   0.0000000   0.0000000   0.0000000   0.0000000   0.0000000   0.0000000   0.0000000   0.0000000   0.0000000
 NMagM=    2.7928460   2.7928460   2.7928460   2.7928460   2.7928460   2.7928460   2.7928460   2.7928460   2.7928460   2.7928460
 AtZNuc=   1.0000000   1.0000000   1.0000000   1.0000000   1.0000000   1.0000000   1.0000000   1.0000000   1.0000000   1.0000000

  Atom        51
 IAtWgt=           1
 AtmWgt=   1.0078250
 NucSpn=           1
 AtZEff=   0.0000000
 NQMom=    0.0000000
 NMagM=    2.7928460
 AtZNuc=   1.0000000
 Leave Link  101 at Sun Mar  3 17:33:35 2024, MaxMem=  5368709120 cpu:         0.9
 (Enter /home/k0335/k033513/app/g09/l202.exe)
 Symmetry turned off by external request.
 Stoichiometry    C15H11F18N3O4(1+,2)
 Framework group  C1[X(C15H11F18N3O4)]
 Deg. of freedom   147
 Full point group                 C1      NOp   1
                          Input orientation:                          
 ---------------------------------------------------------------------
 Center     Atomic      Atomic             Coordinates (Angstroms)
 Number     Number       Type             X           Y           Z
 ---------------------------------------------------------------------
      1          6           0       -1.895640   -5.580473   -0.217871
      2          6           0       -2.657972   -4.314004   -0.575286
      3          6           0       -1.766537   -3.075948   -0.681172
      4          6           0       -1.134593   -2.667015    0.652834
      5          7           0       -0.380674   -1.419379    0.511013
      6          6           0       -1.039642   -0.234403    0.785703
      7          8           0       -2.198303   -0.184576    1.187323
      8          7           0       -0.316094    0.907040    0.580733
      9          6           0       -0.968874    2.198927    0.726204
     10          9           0       -1.680235    2.243328    1.879399
     11          9           0        0.055747    3.091779    0.933953
     12          6           0       -1.796422    2.758181   -0.459824
     13          9           0       -1.007802    2.588670   -1.588703
     14          8           0       -1.989001    4.183305   -0.452737
     15          6           0       -2.576844    4.691419    0.718294
     16          9           0       -3.641939    3.964657    1.071260
     17          9           0       -2.973986    5.954444    0.480431
     18          9           0       -1.677479    4.703258    1.712616
     19          6           0       -3.077767    1.958718   -0.699744
     20          9           0       -2.797057    0.729904   -1.199547
     21          9           0       -3.848128    1.799289    0.388797
     22          9           0       -3.844173    2.575792   -1.638149
     23          6           0        0.831657    0.826772   -0.265402
     24          7           0        1.637933   -0.305582    0.062189
     25          6           0        3.042566   -0.401842   -0.344799
     26          9           0        3.106870   -1.062991   -1.528749
     27          9           0        3.648737   -1.215124    0.577106
     28          6           0        3.949191    0.862751   -0.404588
     29          9           0        5.269089    0.493298   -0.325544
     30          8           0        3.740373    1.837028    0.625440
     31          6           0        3.966367    1.323138    1.918182
     32          9           0        2.903456    0.592260    2.291725
     33          9           0        5.079956    0.581558    1.981367
     34          9           0        4.085003    2.361939    2.765962
     35          6           0        3.784952    1.505063   -1.782972
     36          9           0        4.514489    2.644979   -1.879495
     37          9           0        4.186422    0.701027   -2.790777
     38          9           0        2.502135    1.850288   -2.041509
     39          6           0        0.973185   -1.512533    0.203596
     40          8           0        1.538176   -2.595968    0.074953
     41          1           0       -1.478647   -5.526564    0.791936
     42          1           0       -2.566583   -6.444850   -0.252848
     43          1           0       -1.076921   -5.758550   -0.922175
     44          1           0       -3.154833   -4.467603   -1.540670
     45          1           0       -3.448836   -4.142701    0.164159
     46          1           0       -0.981511   -3.247632   -1.428080
     47          1           0       -2.374481   -2.244999   -1.061219
     48          1           0       -0.466899   -3.455047    1.016645
     49          1           0       -1.916814   -2.542281    1.410481
     50          1           0        0.504842    0.736202   -1.307185
     51          1           0        1.413541    1.735052   -0.123254
 ---------------------------------------------------------------------
 Rotational constants (GHZ):      0.1098660      0.0730578      0.0544514
 Leave Link  202 at Sun Mar  3 17:33:35 2024, MaxMem=  5368709120 cpu:         0.0
 (Enter /home/k0335/k033513/app/g09/l301.exe)
 Standard basis: 6-31G(d,p) (6D, 7F)
 Ernie: Thresh=  0.10000D-02 Tol=  0.10000D-05 Strict=F.
   655 basis functions,  1197 primitive gaussians,   655 cartesian basis functions
   158 alpha electrons      157 beta electrons
       nuclear repulsion energy      6151.5138262575 Hartrees.
 IExCor=20419 DFT=T Ex+Corr=CAM-B3LYP ExCW=0 ScaHFX=  1.000000
 ScaDFX=  1.000000  1.000000  1.000000  0.810000 ScalE2=  1.000000  1.000000
 IRadAn=      0 IRanWt=     -1 IRanGd=            0 ICorTp=0 IEmpDi=  4
  HFx wShort=  0.000000 wLong=  0.330000 cFull=  0.190000 cShort=  0.000000 cLong=  0.460000
  DFx wShort=  0.000000 wLong=  0.330000 cFull=  0.190000 cShort=  0.000000 cLong=  0.460000
 NAtoms=   51 NActive=   51 NUniq=   51 SFac= 1.00D+00 NAtFMM=   60 NAOKFM=F Big=F
 Integral buffers will be    131072 words long.
 Raffenetti 2 integral format.
 Two-electron integral symmetry is turned off.
 Using the following non-standard input for PCM:
 eps=4.9
 --- end of non-standard input.
 ------------------------------------------------------------------------------
 Polarizable Continuum Model (PCM)
 =================================
 Model                : PCM (using non-symmetric T matrix).
 Atomic radii         : UFF (Universal Force Field).
 Polarization charges : Total charges.
 Charge compensation  : None.
 Solution method      : On-the-fly selection.
 Cavity type          : Scaled VdW (van der Waals Surface) (Alpha=1.100).
 Cavity algorithm     : GePol (No added spheres)
                        Default sphere list used, NSphG=   51.
                        Lebedev-Laikov grids with approx.  5.0 points / Ang**2.
                        Smoothing algorithm: Karplus/York (Gamma=1.0000).
                        Polarization charges: spherical gaussians, with
                                              point-specific exponents (IZeta= 3).
                        Self-potential: point-specific (ISelfS= 7).
                        Self-field    : sphere-specific E.n sum rule (ISelfD= 2).
 Solvent              : Generic,
                        Eps                           =   4.900000
                        Eps(infinity)                 =   0.000000
                        RSolv                         =   0.000000 Ang.
                        Molar volume                  =   0.000000 cm**3/mol
                        Thermal expansion coefficient =   0.000000 K**-1
                        Absolute temperature          = 298.150000 K
                        Numeral density               =   0.000000 Ang**-3
                        Hydrogen bond acidity         =   0.000000
                        Hydrogen bond basicity        =   0.000000
                        Surface tension at interface  =   0.000000 (cal/mol)*Ang**-2
                        Carbon aromaticity            =   0.000000
                        Electronegative halogenicity  =   0.000000
 ------------------------------------------------------------------------------
 GePol: Number of generator spheres                  =      51
 GePol: Total number of spheres                      =      51
 GePol: Number of exposed spheres                    =      51 (100.00%)
 GePol: Number of points                             =    3924
 GePol: Average weight of points                     =       0.12
 GePol: Minimum weight of points                     =   0.46D-11
 GePol: Maximum weight of points                     =    0.20577
 GePol: Number of points with low weight             =     206
 GePol: Fraction of low-weight points (<1% of avg)   =       5.25%
 GePol: Cavity surface area                          =    486.520 Ang**2
 GePol: Cavity volume                                =    570.892 Ang**3
 Leave Link  301 at Sun Mar  3 17:33:35 2024, MaxMem=  5368709120 cpu:         0.8
 (Enter /home/k0335/k033513/app/g09/l302.exe)
 NPDir=0 NMtPBC=     1 NCelOv=     1 NCel=       1 NClECP=     1 NCelD=      1
         NCelK=      1 NCelE2=     1 NClLst=     1 CellRange=     0.0.
 One-electron integrals computed using PRISM.
 NBasis=   655 RedAO= T EigKep=  1.15D-03  NBF=   655
 NBsUse=   655 1.00D-06 EigRej= -1.00D+00 NBFU=   655
 Precomputing XC quadrature grid using
 IXCGrd= 4 IRadAn=           0 IRanWt=          -1 IRanGd=           0 AccXCQ= 0.00D+00.
 Generated NRdTot=       0 NPtTot=           0 NUsed=           0 NTot=          32
 NSgBfM=   639   639   639   639   639 MxSgAt=    51 MxSgA2=    51.
 Leave Link  302 at Sun Mar  3 17:33:36 2024, MaxMem=  5368709120 cpu:        14.7
 (Enter /home/k0335/k033513/app/g09/l303.exe)
 DipDrv:  MaxL=1.
 Leave Link  303 at Sun Mar  3 17:33:36 2024, MaxMem=  5368709120 cpu:         0.9
 (Enter /home/k0335/k033513/app/g09/l401.exe)
 ExpMin= 1.61D-01 ExpMax= 7.00D+03 ExpMxC= 1.05D+03 IAcc=1 IRadAn=         1 AccDes= 0.00D+00
 Harris functional with IExCor=20419 and IRadAn=       1 diagonalized for initial guess.
 HarFok:  IExCor=20419 AccDes= 0.00D+00 IRadAn=         1 IDoV= 1 UseB2=F ITyADJ=14
 ICtDFT=  3500011 ScaDFX=  1.000000  1.000000  1.000000  1.000000
 FoFCou: FMM=F IPFlag=           0 FMFlag=      100000 FMFlg1=           0
         NFxFlg=           0 DoJE=T BraDBF=F KetDBF=T FulRan=T
         wScrn=  0.000000 ICntrl=     500 IOpCl=  0 I1Cent=   200000004 NGrid=           0
         NMat0=    1 NMatS0=      1 NMatT0=    0 NMatD0=    1 NMtDS0=    0 NMtDT0=    0
 Symmetry not used in FoFCou.
 Harris En= -2753.10720853848    
 JPrj=0 DoOrth=F DoCkMO=F.
 Initial guess <Sx>= 0.0000 <Sy>= 0.0000 <Sz>= 0.5000 <S**2>= 0.7500 S= 0.5000
 Leave Link  401 at Sun Mar  3 17:33:37 2024, MaxMem=  5368709120 cpu:        20.3
 (Enter /home/k0335/k033513/app/g09/l502.exe)
 UHF open shell SCF:
 Using DIIS extrapolation, IDIIS=  1040.
 Two-electron integral symmetry not used.
 IVT=     1325377 IEndB=     1325377 NGot=  5368709120 MDV=  5367830064
 LenX=  5367830064 LenY=  5367400384
 Requested convergence on RMS density matrix=1.00D-08 within 128 cycles.
 Requested convergence on MAX density matrix=1.00D-06.
 Requested convergence on             energy=1.00D-06.
 No special actions if energy rises.
 Fock matrices will be formed incrementally for  20 cycles.

 Cycle   1  Pass 1  IDiag  1:
 FoFJK:  IHMeth= 1 ICntrl=       0 DoSepK=T KAlg= 0 I1Cent=   0 FoldK=F
 IRaf=         1 NMat=   1 IRICut=       1 DoRegI=T DoRafI=F ISym2E= 0.
 FoFCou: FMM=F IPFlag=           0 FMFlag=      100000 FMFlg1=           0
         NFxFlg=           0 DoJE=T BraDBF=F KetDBF=F FulRan=T
         wScrn=  0.000000 ICntrl=     500 IOpCl=  0 I1Cent=           0 NGrid=           0
         NMat0=    1 NMatS0=      1 NMatT0=    0 NMatD0=    1 NMtDS0=    0 NMtDT0=    0
 Symmetry not used in FoFCou.
 Inv3:  Mode=1 IEnd=    46193328.
 Iteration    1 A*A^-1 deviation from unit magnitude is 5.77D-15 for   3920.
 Iteration    1 A*A^-1 deviation from orthogonality  is 2.79D-15 for   3452   2539.
 Iteration    1 A^-1*A deviation from unit magnitude is 4.88D-15 for   3920.
 Iteration    1 A^-1*A deviation from orthogonality  is 7.47D-14 for   3504   3486.
 E= -2838.29794977752    
 DIIS: error= 5.24D-02 at cycle   1 NSaved=   1.
 NSaved= 1 IEnMin= 1 EnMin= -2838.29794977752     IErMin= 1 ErrMin= 5.24D-02
 ErrMax= 5.24D-02  0.00D+00 EMaxC= 1.00D-01 BMatC= 1.00D+01 BMatP= 1.00D+01
 IDIUse=3 WtCom= 4.76D-01 WtEn= 5.24D-01
 Coeff-Com:  0.100D+01
 Coeff-En:   0.100D+01
 Coeff:      0.100D+01
 Gap=     0.444 Goal=   None    Shift=    0.000
 Gap=     0.113 Goal=   None    Shift=    0.000
 GapD=    0.113 DampG=1.000 DampE=0.500 DampFc=0.5000 IDamp=-1.
 Damping current iteration by 5.00D-01
 RMSDP=3.16D-03 MaxDP=1.68D-01              OVMax= 5.24D-01

 Cycle   2  Pass 1  IDiag  1:
 RMSU=  1.58D-03    CP:  1.00D+00
 E= -2838.79284784252     Delta-E=       -0.494898064995 Rises=F Damp=T
 DIIS: error= 3.01D-02 at cycle   2 NSaved=   2.
 NSaved= 2 IEnMin= 2 EnMin= -2838.79284784252     IErMin= 2 ErrMin= 3.01D-02
 ErrMax= 3.01D-02  0.00D+00 EMaxC= 1.00D-01 BMatC= 1.30D+00 BMatP= 1.00D+01
 IDIUse=3 WtCom= 6.99D-01 WtEn= 3.01D-01
 Coeff-Com: -0.224D+00 0.122D+01
 Coeff-En:   0.000D+00 0.100D+01
 Coeff:     -0.156D+00 0.116D+01
 Gap=     0.573 Goal=   None    Shift=    0.000
 Gap=     0.064 Goal=   None    Shift=    0.000
 RMSDP=1.24D-03 MaxDP=1.05D-01 DE=-4.95D-01 OVMax= 9.15D-01

 Cycle   3  Pass 1  IDiag  1:
 RMSU=  1.24D-03    CP:  9.98D-01  1.06D+00
 E= -2839.10396792337     Delta-E=       -0.311120080847 Rises=F Damp=F
 DIIS: error= 1.27D-02 at cycle   3 NSaved=   3.
 NSaved= 3 IEnMin= 3 EnMin= -2839.10396792337     IErMin= 3 ErrMin= 1.27D-02
 ErrMax= 1.27D-02  0.00D+00 EMaxC= 1.00D-01 BMatC= 1.19D+00 BMatP= 1.30D+00
 IDIUse=3 WtCom= 8.73D-01 WtEn= 1.27D-01
 Coeff-Com: -0.206D+00 0.703D+00 0.503D+00
 Coeff-En:   0.000D+00 0.144D-02 0.999D+00
 Coeff:     -0.180D+00 0.614D+00 0.566D+00
 Gap=     0.416 Goal=   None    Shift=    0.000
 Gap=     0.099 Goal=   None    Shift=    0.000
 RMSDP=9.41D-04 MaxDP=9.60D-02 DE=-3.11D-01 OVMax= 1.39D-01

 Cycle   4  Pass 1  IDiag  1:
 RMSU=  6.52D-04    CP:  9.99D-01  1.27D+00  5.19D-01
 E= -2839.33357077229     Delta-E=       -0.229602848922 Rises=F Damp=F
 DIIS: error= 5.22D-03 at cycle   4 NSaved=   4.
 NSaved= 4 IEnMin= 4 EnMin= -2839.33357077229     IErMin= 4 ErrMin= 5.22D-03
 ErrMax= 5.22D-03  0.00D+00 EMaxC= 1.00D-01 BMatC= 1.57D-01 BMatP= 1.19D+00
 IDIUse=3 WtCom= 9.48D-01 WtEn= 5.22D-02
 Coeff-Com: -0.864D-01 0.222D+00 0.297D+00 0.568D+00
 Coeff-En:   0.000D+00 0.000D+00 0.234D-01 0.977D+00
 Coeff:     -0.818D-01 0.210D+00 0.282D+00 0.589D+00
 Gap=     0.372 Goal=   None    Shift=    0.000
 Gap=     0.092 Goal=   None    Shift=    0.000
 RMSDP=3.41D-04 MaxDP=3.78D-02 DE=-2.30D-01 OVMax= 7.91D-02

 Cycle   5  Pass 1  IDiag  1:
 RMSU=  2.41D-04    CP:  9.97D-01  1.26D+00  6.60D-01  7.48D-01
 E= -2839.35930751741     Delta-E=       -0.025736745120 Rises=F Damp=F
 DIIS: error= 2.43D-03 at cycle   5 NSaved=   5.
 NSaved= 5 IEnMin= 5 EnMin= -2839.35930751741     IErMin= 5 ErrMin= 2.43D-03
 ErrMax= 2.43D-03  0.00D+00 EMaxC= 1.00D-01 BMatC= 2.52D-02 BMatP= 1.57D-01
 IDIUse=3 WtCom= 9.76D-01 WtEn= 2.43D-02
 Coeff-Com: -0.316D-01 0.639D-01 0.841D-01 0.323D+00 0.561D+00
 Coeff-En:   0.000D+00 0.000D+00 0.000D+00 0.880D-01 0.912D+00
 Coeff:     -0.308D-01 0.624D-01 0.820D-01 0.317D+00 0.569D+00
 Gap=     0.356 Goal=   None    Shift=    0.000
 Gap=     0.124 Goal=   None    Shift=    0.000
 RMSDP=1.08D-04 MaxDP=1.37D-02 DE=-2.57D-02 OVMax= 1.60D-02

 Cycle   6  Pass 1  IDiag  1:
 RMSU=  7.73D-05    CP:  9.98D-01  1.28D+00  6.40D-01  8.15D-01  8.34D-01
 E= -2839.36446022784     Delta-E=       -0.005152710430 Rises=F Damp=F
 DIIS: error= 4.51D-04 at cycle   6 NSaved=   6.
 NSaved= 6 IEnMin= 6 EnMin= -2839.36446022784     IErMin= 6 ErrMin= 4.51D-04
 ErrMax= 4.51D-04  0.00D+00 EMaxC= 1.00D-01 BMatC= 8.07D-04 BMatP= 2.52D-02
 IDIUse=3 WtCom= 9.95D-01 WtEn= 4.51D-03
 Coeff-Com: -0.182D-02 0.291D-02-0.956D-02 0.209D-01 0.126D+00 0.861D+00
 Coeff-En:   0.000D+00 0.000D+00 0.000D+00 0.000D+00 0.000D+00 0.100D+01
 Coeff:     -0.182D-02 0.290D-02-0.951D-02 0.208D-01 0.126D+00 0.862D+00
 Gap=     0.358 Goal=   None    Shift=    0.000
 Gap=     0.116 Goal=   None    Shift=    0.000
 RMSDP=6.77D-05 MaxDP=1.22D-02 DE=-5.15D-03 OVMax= 4.45D-02

 Cycle   7  Pass 1  IDiag  1:
 RMSU=  4.74D-05    CP:  9.98D-01  1.29D+00  6.39D-01  8.23D-01  9.90D-01
                    CP:  1.36D+00
 E= -2839.36525101169     Delta-E=       -0.000790783857 Rises=F Damp=F
 DIIS: error= 4.88D-04 at cycle   7 NSaved=   7.
 NSaved= 7 IEnMin= 7 EnMin= -2839.36525101169     IErMin= 6 ErrMin= 4.51D-04
 ErrMax= 4.88D-04  0.00D+00 EMaxC= 1.00D-01 BMatC= 7.88D-04 BMatP= 8.07D-04
 IDIUse=3 WtCom= 9.95D-01 WtEn= 4.51D-03
 Coeff-Com:  0.426D-02-0.826D-02-0.182D-01-0.401D-01-0.351D-01 0.588D+00
 Coeff-Com:  0.510D+00
 Coeff-En:   0.000D+00 0.000D+00 0.000D+00 0.000D+00 0.000D+00 0.000D+00
 Coeff-En:   0.100D+01
 Coeff:      0.424D-02-0.822D-02-0.181D-01-0.400D-01-0.349D-01 0.585D+00
 Coeff:      0.512D+00
 Gap=     0.360 Goal=   None    Shift=    0.000
 Gap=     0.119 Goal=   None    Shift=    0.000
 RMSDP=3.64D-05 MaxDP=4.29D-03 DE=-7.91D-04 OVMax= 2.06D-02

 Cycle   8  Pass 1  IDiag  1:
 RMSU=  1.95D-05    CP:  9.97D-01  1.29D+00  6.40D-01  8.21D-01  1.04D+00
                    CP:  1.66D+00  1.32D+00
 E= -2839.36569906281     Delta-E=       -0.000448051120 Rises=F Damp=F
 DIIS: error= 2.64D-04 at cycle   8 NSaved=   8.
 NSaved= 8 IEnMin= 8 EnMin= -2839.36569906281     IErMin= 8 ErrMin= 2.64D-04
 ErrMax= 2.64D-04  0.00D+00 EMaxC= 1.00D-01 BMatC= 2.18D-04 BMatP= 7.88D-04
 IDIUse=3 WtCom= 9.97D-01 WtEn= 2.64D-03
 Coeff-Com:  0.878D-03-0.154D-02 0.637D-02 0.332D-02-0.445D-01 0.506D-02
 Coeff-Com: -0.353D+00 0.138D+01
 Coeff-En:   0.000D+00 0.000D+00 0.000D+00 0.000D+00 0.000D+00 0.000D+00
 Coeff-En:   0.000D+00 0.100D+01
 Coeff:      0.876D-03-0.154D-02 0.636D-02 0.331D-02-0.444D-01 0.505D-02
 Coeff:     -0.352D+00 0.138D+01
 Gap=     0.362 Goal=   None    Shift=    0.000
 Gap=     0.120 Goal=   None    Shift=    0.000
 RMSDP=6.45D-05 MaxDP=1.13D-02 DE=-4.48D-04 OVMax= 4.65D-02

 Cycle   9  Pass 1  IDiag  1:
 RMSU=  1.80D-05    CP:  9.97D-01  1.29D+00  6.40D-01  8.09D-01  1.11D+00
                    CP:  2.08D+00  2.24D+00  2.21D+00
 E= -2839.36628881441     Delta-E=       -0.000589751598 Rises=F Damp=F
 DIIS: error= 3.42D-04 at cycle   9 NSaved=   9.
 NSaved= 9 IEnMin= 9 EnMin= -2839.36628881441     IErMin= 8 ErrMin= 2.64D-04
 ErrMax= 3.42D-04  0.00D+00 EMaxC= 1.00D-01 BMatC= 3.53D-04 BMatP= 2.18D-04
 IDIUse=3 WtCom= 9.97D-01 WtEn= 2.64D-03
 Coeff-Com: -0.158D-02 0.338D-02 0.139D-01 0.241D-01-0.126D-01-0.935D-01
 Coeff-Com: -0.703D+00 0.123D+01 0.537D+00
 Coeff-En:   0.000D+00 0.000D+00 0.000D+00 0.000D+00 0.000D+00 0.000D+00
 Coeff-En:   0.000D+00 0.000D+00 0.100D+01
 Coeff:     -0.157D-02 0.337D-02 0.139D-01 0.240D-01-0.126D-01-0.932D-01
 Coeff:     -0.701D+00 0.123D+01 0.538D+00
 Gap=     0.364 Goal=   None    Shift=    0.000
 Gap=     0.121 Goal=   None    Shift=    0.000
 RMSDP=4.27D-05 MaxDP=6.51D-03 DE=-5.90D-04 OVMax= 3.02D-02

 Cycle  10  Pass 1  IDiag  1:
 RMSU=  8.02D-06    CP:  9.97D-01  1.29D+00  6.39D-01  8.00D-01  1.15D+00
                    CP:  2.32D+00  2.83D+00  3.00D+00  1.60D+00
 E= -2839.36667995760     Delta-E=       -0.000391143189 Rises=F Damp=F
 DIIS: error= 2.93D-04 at cycle  10 NSaved=  10.
 NSaved=10 IEnMin=10 EnMin= -2839.36667995760     IErMin= 8 ErrMin= 2.64D-04
 ErrMax= 2.93D-04  0.00D+00 EMaxC= 1.00D-01 BMatC= 2.78D-04 BMatP= 2.18D-04
 IDIUse=3 WtCom= 9.97D-01 WtEn= 2.64D-03
 Coeff-Com: -0.553D-03 0.988D-03 0.387D-02 0.107D-01 0.131D-01 0.903D-01
 Coeff-Com: -0.567D+00 0.513D+00-0.968D+00 0.190D+01
 Coeff-En:   0.000D+00 0.000D+00 0.000D+00 0.000D+00 0.000D+00 0.000D+00
 Coeff-En:   0.000D+00 0.000D+00 0.000D+00 0.100D+01
 Coeff:     -0.551D-03 0.985D-03 0.386D-02 0.107D-01 0.131D-01 0.900D-01
 Coeff:     -0.565D+00 0.512D+00-0.966D+00 0.190D+01
 Gap=     0.366 Goal=   None    Shift=    0.000
 Gap=     0.123 Goal=   None    Shift=    0.000
 RMSDP=8.35D-05 MaxDP=1.25D-02 DE=-3.91D-04 OVMax= 6.07D-02

 Cycle  11  Pass 1  IDiag  1:
 RMSU=  5.40D-05    CP:  9.97D-01  1.30D+00  6.36D-01  7.77D-01  1.22D+00
                    CP:  2.73D+00  3.00D+00  3.00D+00  3.00D+00  3.00D+00
 E= -2839.36738346449     Delta-E=       -0.000703506885 Rises=F Damp=F
 DIIS: error= 2.46D-04 at cycle  11 NSaved=  11.
 NSaved=11 IEnMin=11 EnMin= -2839.36738346449     IErMin=11 ErrMin= 2.46D-04
 ErrMax= 2.46D-04  0.00D+00 EMaxC= 1.00D-01 BMatC= 2.51D-04 BMatP= 2.18D-04
 IDIUse=3 WtCom= 9.97D-01 WtEn= 2.64D-03
 Coeff-Com:  0.587D-03-0.102D-02-0.404D-03-0.432D-02 0.837D-02 0.183D+00
 Coeff-Com: -0.253D+00 0.326D+00-0.165D+01 0.939D+00 0.146D+01
 Coeff-En:   0.000D+00 0.000D+00 0.000D+00 0.000D+00 0.000D+00 0.000D+00
 Coeff-En:   0.000D+00 0.000D+00 0.000D+00 0.000D+00 0.100D+01
 Coeff:      0.586D-03-0.102D-02-0.403D-03-0.431D-02 0.835D-02 0.182D+00
 Coeff:     -0.253D+00 0.325D+00-0.165D+01 0.936D+00 0.145D+01
 Gap=     0.368 Goal=   None    Shift=    0.000
 Gap=     0.126 Goal=   None    Shift=    0.000
 RMSDP=1.10D-04 MaxDP=1.53D-02 DE=-7.04D-04 OVMax= 8.02D-02

 Cycle  12  Pass 1  IDiag  1:
 RMSU=  4.61D-05    CP:  9.97D-01  1.30D+00  6.29D-01  7.37D-01  1.30D+00
                    CP:  3.00D+00  3.00D+00  3.00D+00  3.00D+00  3.00D+00
                    CP:  2.62D+00
 E= -2839.36822218091     Delta-E=       -0.000838716429 Rises=F Damp=F
 DIIS: error= 1.73D-04 at cycle  12 NSaved=  12.
 NSaved=12 IEnMin=12 EnMin= -2839.36822218091     IErMin=12 ErrMin= 1.73D-04
 ErrMax= 1.73D-04  0.00D+00 EMaxC= 1.00D-01 BMatC= 1.93D-04 BMatP= 2.18D-04
 IDIUse=3 WtCom= 9.98D-01 WtEn= 1.73D-03
 Coeff-Com:  0.940D-03-0.171D-02 0.451D-02-0.443D-02-0.687D-02 0.700D-01
 Coeff-Com: -0.141D+00 0.668D+00-0.530D+00-0.901D+00 0.814D+00 0.103D+01
 Coeff-En:   0.000D+00 0.000D+00 0.000D+00 0.000D+00 0.000D+00 0.000D+00
 Coeff-En:   0.000D+00 0.000D+00 0.000D+00 0.000D+00 0.000D+00 0.100D+01
 Coeff:      0.939D-03-0.171D-02 0.450D-02-0.442D-02-0.686D-02 0.699D-01
 Coeff:     -0.141D+00 0.667D+00-0.530D+00-0.900D+00 0.813D+00 0.103D+01
 Gap=     0.369 Goal=   None    Shift=    0.000
 Gap=     0.127 Goal=   None    Shift=    0.000
 RMSDP=6.95D-05 MaxDP=8.25D-03 DE=-8.39D-04 OVMax= 5.16D-02

 Cycle  13  Pass 1  IDiag  1:
 RMSU=  3.37D-05    CP:  9.97D-01  1.30D+00  6.24D-01  7.05D-01  1.34D+00
                    CP:  3.00D+00  3.00D+00  3.00D+00  3.00D+00  3.00D+00
                    CP:  3.00D+00  1.80D+00
 E= -2839.36870523685     Delta-E=       -0.000483055939 Rises=F Damp=F
 DIIS: error= 1.63D-04 at cycle  13 NSaved=  13.
 NSaved=13 IEnMin=13 EnMin= -2839.36870523685     IErMin=13 ErrMin= 1.63D-04
 ErrMax= 1.63D-04  0.00D+00 EMaxC= 1.00D-01 BMatC= 1.51D-04 BMatP= 1.93D-04
 IDIUse=3 WtCom= 9.98D-01 WtEn= 1.63D-03
 Coeff-Com:  0.124D-03-0.251D-03 0.947D-02 0.755D-02-0.692D-02-0.657D-01
 Coeff-Com: -0.270D+00 0.745D+00 0.616D+00-0.105D+01-0.846D+00-0.210D-02
 Coeff-Com:  0.186D+01
 Coeff-En:   0.000D+00 0.000D+00 0.000D+00 0.000D+00 0.000D+00 0.000D+00
 Coeff-En:   0.000D+00 0.000D+00 0.000D+00 0.000D+00 0.000D+00 0.000D+00
 Coeff-En:   0.100D+01
 Coeff:      0.124D-03-0.250D-03 0.946D-02 0.753D-02-0.691D-02-0.656D-01
 Coeff:     -0.270D+00 0.744D+00 0.615D+00-0.105D+01-0.844D+00-0.210D-02
 Coeff:      0.186D+01
 Gap=     0.370 Goal=   None    Shift=    0.000
 Gap=     0.128 Goal=   None    Shift=    0.000
 RMSDP=1.29D-04 MaxDP=1.37D-02 DE=-4.83D-04 OVMax= 9.76D-02

 Cycle  14  Pass 1  IDiag  1:
 RMSU=  3.54D-05    CP:  9.96D-01  1.31D+00  6.13D-01  6.36D-01  1.40D+00
                    CP:  3.00D+00  3.00D+00  3.00D+00  3.00D+00  3.00D+00
                    CP:  3.00D+00  3.00D+00  3.00D+00
 E= -2839.36949378973     Delta-E=       -0.000788552879 Rises=F Damp=F
 DIIS: error= 1.39D-04 at cycle  14 NSaved=  14.
 NSaved=14 IEnMin=14 EnMin= -2839.36949378973     IErMin=14 ErrMin= 1.39D-04
 ErrMax= 1.39D-04  0.00D+00 EMaxC= 1.00D-01 BMatC= 1.04D-04 BMatP= 1.51D-04
 IDIUse=3 WtCom= 9.99D-01 WtEn= 1.39D-03
 Coeff-Com: -0.868D-03 0.172D-02 0.646D-02 0.130D-01 0.109D-01-0.800D-01
 Coeff-Com: -0.365D+00 0.358D+00 0.732D+00 0.613D+00-0.145D+01-0.181D+01
 Coeff-Com:  0.147D+01 0.150D+01
 Coeff-En:   0.000D+00 0.000D+00 0.000D+00 0.000D+00 0.000D+00 0.000D+00
 Coeff-En:   0.000D+00 0.000D+00 0.000D+00 0.000D+00 0.000D+00 0.000D+00
 Coeff-En:   0.000D+00 0.100D+01
 Coeff:     -0.867D-03 0.171D-02 0.645D-02 0.129D-01 0.109D-01-0.799D-01
 Coeff:     -0.364D+00 0.358D+00 0.731D+00 0.612D+00-0.145D+01-0.181D+01
 Coeff:      0.146D+01 0.150D+01
 Gap=     0.370 Goal=   None    Shift=    0.000
 Gap=     0.128 Goal=   None    Shift=    0.000
 RMSDP=1.35D-04 MaxDP=1.48D-02 DE=-7.89D-04 OVMax= 1.03D-01

 Cycle  15  Pass 1  IDiag  1:
 RMSU=  6.01D-05    CP:  9.96D-01  1.31D+00  5.99D-01  5.53D-01  1.45D+00
                    CP:  3.00D+00  3.00D+00  3.00D+00  3.00D+00  3.00D+00
                    CP:  3.00D+00  3.00D+00  3.00D+00  3.00D+00
 E= -2839.37016601245     Delta-E=       -0.000672222719 Rises=F Damp=F
 DIIS: error= 1.09D-04 at cycle  15 NSaved=  15.
 NSaved=15 IEnMin=15 EnMin= -2839.37016601245     IErMin=15 ErrMin= 1.09D-04
 ErrMax= 1.09D-04  0.00D+00 EMaxC= 1.00D-01 BMatC= 6.50D-05 BMatP= 1.04D-04
 IDIUse=3 WtCom= 9.99D-01 WtEn= 1.09D-03
 Coeff-Com: -0.620D-04 0.351D-04-0.254D-02-0.815D-03 0.205D-01 0.507D-01
 Coeff-Com: -0.168D+00-0.114D+00-0.496D+00 0.145D+01-0.577D-01-0.146D+01
 Coeff-Com: -0.493D+00 0.969D+00 0.130D+01
 Coeff-En:   0.000D+00 0.000D+00 0.000D+00 0.000D+00 0.000D+00 0.000D+00
 Coeff-En:   0.000D+00 0.000D+00 0.000D+00 0.000D+00 0.000D+00 0.000D+00
 Coeff-En:   0.000D+00 0.000D+00 0.100D+01
 Coeff:     -0.620D-04 0.350D-04-0.254D-02-0.814D-03 0.205D-01 0.506D-01
 Coeff:     -0.168D+00-0.114D+00-0.496D+00 0.145D+01-0.576D-01-0.146D+01
 Coeff:     -0.493D+00 0.968D+00 0.130D+01
 Gap=     0.362 Goal=   None    Shift=    0.000
 Gap=     0.137 Goal=   None    Shift=    0.000
 RMSDP=1.69D-04 MaxDP=1.73D-02 DE=-6.72D-04 OVMax= 1.28D-01

 Cycle  16  Pass 1  IDiag  1:
 RMSU=  7.20D-05    CP:  9.96D-01  1.32D+00  5.79D-01  4.41D-01  1.45D+00
                    CP:  3.00D+00  3.00D+00  3.00D+00  3.00D+00  3.00D+00
                    CP:  3.00D+00  3.00D+00  3.00D+00  3.00D+00  3.00D+00
 E= -2839.37067874493     Delta-E=       -0.000512732473 Rises=F Damp=F
 DIIS: error= 2.60D-04 at cycle  16 NSaved=  16.
 NSaved=16 IEnMin=16 EnMin= -2839.37067874493     IErMin=15 ErrMin= 1.09D-04
 ErrMax= 2.60D-04  0.00D+00 EMaxC= 1.00D-01 BMatC= 2.07D-04 BMatP= 6.50D-05
 IDIUse=3 WtCom= 9.99D-01 WtEn= 1.09D-03
 Coeff-Com:  0.218D-03-0.541D-03-0.254D-02-0.413D-02 0.192D-01 0.287D-01
 Coeff-Com: -0.349D-01-0.127D+00-0.203D+00 0.917D+00 0.105D-01-0.791D+00
 Coeff-Com: -0.590D+00 0.683D+00 0.800D+00 0.295D+00
 Coeff-En:   0.000D+00 0.000D+00 0.000D+00 0.000D+00 0.000D+00 0.000D+00
 Coeff-En:   0.000D+00 0.000D+00 0.000D+00 0.000D+00 0.000D+00 0.000D+00
 Coeff-En:   0.000D+00 0.000D+00 0.000D+00 0.100D+01
 Coeff:      0.218D-03-0.541D-03-0.254D-02-0.413D-02 0.191D-01 0.287D-01
 Coeff:     -0.349D-01-0.127D+00-0.203D+00 0.916D+00 0.105D-01-0.790D+00
 Coeff:     -0.590D+00 0.683D+00 0.799D+00 0.295D+00
 Gap=     0.365 Goal=   None    Shift=    0.000
 Gap=     0.129 Goal=   None    Shift=    0.000
 RMSDP=6.20D-05 MaxDP=5.55D-03 DE=-5.13D-04 OVMax= 4.24D-02

 Cycle  17  Pass 1  IDiag  1:
 RMSU=  1.75D-05    CP:  9.96D-01  1.31D+00  5.85D-01  4.78D-01  1.47D+00
                    CP:  3.00D+00  3.00D+00  3.00D+00  3.00D+00  3.00D+00
                    CP:  3.00D+00  3.00D+00  3.00D+00  3.00D+00  2.46D+00
                    CP:  5.64D-01
 E= -2839.37057164517     Delta-E=        0.000107099751 Rises=F Damp=F
 DIIS: error= 1.14D-04 at cycle  17 NSaved=  17.
 NSaved=17 IEnMin=16 EnMin= -2839.37067874493     IErMin=15 ErrMin= 1.09D-04
 ErrMax= 1.14D-04  0.00D+00 EMaxC= 1.00D-01 BMatC= 8.87D-05 BMatP= 6.50D-05
 IDIUse=3 WtCom= 9.99D-01 WtEn= 1.09D-03
 Rare condition: small coef for last iteration:  0.000D+00
 Coeff-Com:  0.478D-03-0.911D-03-0.159D-02-0.787D-02 0.994D-02 0.242D-01
 Coeff-Com:  0.129D+00-0.102D+00-0.231D+00 0.465D-01 0.383D+00 0.406D+00
 Coeff-Com: -0.810D+00-0.247D+00-0.142D-01 0.547D+00 0.869D+00
 Coeff-En:   0.000D+00 0.000D+00 0.000D+00 0.000D+00 0.000D+00 0.000D+00
 Coeff-En:   0.000D+00 0.000D+00 0.000D+00 0.000D+00 0.000D+00 0.000D+00
 Coeff-En:   0.000D+00 0.000D+00 0.000D+00 0.000D+00 0.100D+01
 Coeff:      0.478D-03-0.911D-03-0.159D-02-0.787D-02 0.994D-02 0.242D-01
 Coeff:      0.129D+00-0.102D+00-0.231D+00 0.465D-01 0.383D+00 0.406D+00
 Coeff:     -0.810D+00-0.247D+00-0.142D-01 0.547D+00 0.869D+00
 Gap=     0.360 Goal=   None    Shift=    0.000
 Gap=     0.131 Goal=   None    Shift=    0.000
 RMSDP=1.07D-04 MaxDP=1.12D-02 DE= 1.07D-04 OVMax= 8.23D-02

 Cycle  18  Pass 1  IDiag  1:
 RMSU=  4.15D-05    CP:  9.96D-01  1.32D+00  5.72D-01  4.03D-01  1.47D+00
                    CP:  3.00D+00  3.00D+00  3.00D+00  3.00D+00  3.00D+00
                    CP:  3.00D+00  3.00D+00  3.00D+00  3.00D+00  3.00D+00
                    CP:  1.31D+00  5.99D-01
 E= -2839.37084060725     Delta-E=       -0.000268962076 Rises=F Damp=F
 DIIS: error= 4.86D-05 at cycle  18 NSaved=  18.
 NSaved=18 IEnMin=18 EnMin= -2839.37084060725     IErMin=18 ErrMin= 4.86D-05
 ErrMax= 4.86D-05  0.00D+00 EMaxC= 1.00D-01 BMatC= 1.48D-05 BMatP= 6.50D-05
 IDIUse=1 WtCom= 1.00D+00 WtEn= 0.00D+00
 Coeff-Com:  0.134D-03-0.252D-03 0.194D-02-0.111D-02 0.840D-03-0.186D-01
 Coeff-Com:  0.262D-01 0.114D+00 0.133D+00-0.344D+00-0.191D+00 0.306D+00
 Coeff-Com:  0.167D+00-0.157D+00-0.578D+00 0.155D+00 0.289D+00 0.109D+01
 Coeff:      0.134D-03-0.252D-03 0.194D-02-0.111D-02 0.840D-03-0.186D-01
 Coeff:      0.262D-01 0.114D+00 0.133D+00-0.344D+00-0.191D+00 0.306D+00
 Coeff:      0.167D+00-0.157D+00-0.578D+00 0.155D+00 0.289D+00 0.109D+01
 Gap=     0.357 Goal=   None    Shift=    0.000
 Gap=     0.136 Goal=   None    Shift=    0.000
 RMSDP=6.79D-05 MaxDP=7.63D-03 DE=-2.69D-04 OVMax= 5.17D-02

 Cycle  19  Pass 1  IDiag  1:
 RMSU=  4.08D-06    CP:  9.95D-01  1.32D+00  5.64D-01  3.54D-01  1.46D+00
                    CP:  3.00D+00  3.00D+00  3.00D+00  3.00D+00  3.00D+00
                    CP:  3.00D+00  3.00D+00  3.00D+00  3.00D+00  3.00D+00
                    CP:  1.85D+00 -9.86D-02  2.03D+00
 E= -2839.37091229872     Delta-E=       -0.000071691469 Rises=F Damp=F
 DIIS: error= 7.77D-05 at cycle  19 NSaved=  19.
 NSaved=19 IEnMin=19 EnMin= -2839.37091229872     IErMin=18 ErrMin= 4.86D-05
 ErrMax= 7.77D-05  0.00D+00 EMaxC= 1.00D-01 BMatC= 2.89D-05 BMatP= 1.48D-05
 IDIUse=1 WtCom= 1.00D+00 WtEn= 0.00D+00
 Coeff-Com: -0.130D-03 0.268D-03 0.115D-02 0.179D-02-0.608D-03-0.189D-01
 Coeff-Com: -0.330D-01 0.713D-01 0.153D+00-0.114D+00-0.298D+00-0.153D+00
 Coeff-Com:  0.562D+00 0.184D+00-0.411D+00-0.381D+00 0.203D-01 0.352D+00
 Coeff-Com:  0.106D+01
 Coeff:     -0.130D-03 0.268D-03 0.115D-02 0.179D-02-0.608D-03-0.189D-01
 Coeff:     -0.330D-01 0.713D-01 0.153D+00-0.114D+00-0.298D+00-0.153D+00
 Coeff:      0.562D+00 0.184D+00-0.411D+00-0.381D+00 0.203D-01 0.352D+00
 Coeff:      0.106D+01
 Gap=     0.357 Goal=   None    Shift=    0.000
 Gap=     0.134 Goal=   None    Shift=    0.000
 RMSDP=9.22D-06 MaxDP=1.45D-03 DE=-7.17D-05 OVMax= 3.89D-03

 Cycle  20  Pass 1  IDiag  1:
 RMSU=  4.33D-06    CP:  9.95D-01  1.32D+00  5.63D-01  3.50D-01  1.46D+00
                    CP:  3.00D+00  3.00D+00  3.00D+00  3.00D+00  3.00D+00
                    CP:  3.00D+00  3.00D+00  3.00D+00  3.00D+00  3.00D+00
                    CP:  1.87D+00  2.25D-01  2.13D+00  1.48D+00
 E= -2839.37092485903     Delta-E=       -0.000012560309 Rises=F Damp=F
 DIIS: error= 2.01D-05 at cycle  20 NSaved=  20.
 NSaved=20 IEnMin=20 EnMin= -2839.37092485903     IErMin=20 ErrMin= 2.01D-05
 ErrMax= 2.01D-05  0.00D+00 EMaxC= 1.00D-01 BMatC= 2.47D-06 BMatP= 1.48D-05
 IDIUse=1 WtCom= 1.00D+00 WtEn= 0.00D+00
 Coeff-Com: -0.317D-04 0.411D-04-0.428D-03 0.331D-03-0.500D-03-0.200D-02
 Coeff-Com: -0.293D-01 0.106D-01 0.374D-01 0.739D-01-0.975D-01-0.272D+00
 Coeff-Com:  0.269D+00 0.617D-01 0.484D-01-0.256D+00-0.333D-01-0.155D+00
 Coeff-Com:  0.635D+00 0.710D+00
 Coeff:     -0.317D-04 0.411D-04-0.428D-03 0.331D-03-0.500D-03-0.200D-02
 Coeff:     -0.293D-01 0.106D-01 0.374D-01 0.739D-01-0.975D-01-0.272D+00
 Coeff:      0.269D+00 0.617D-01 0.484D-01-0.256D+00-0.333D-01-0.155D+00
 Coeff:      0.635D+00 0.710D+00
 Gap=     0.356 Goal=   None    Shift=    0.000
 Gap=     0.136 Goal=   None    Shift=    0.000
 RMSDP=2.34D-05 MaxDP=2.93D-03 DE=-1.26D-05 OVMax= 1.77D-02

 Cycle  21  Pass 1  IDiag  1:
 Restarting incremental Fock formation.
 E= -2839.37093220151     Delta-E=       -0.000007342484 Rises=F Damp=F
 DIIS: error= 3.02D-05 at cycle  21 NSaved=  20.
 NSaved=20 IEnMin=20 EnMin= -2839.37093220151     IErMin=19 ErrMin= 2.01D-05
 ErrMax= 3.02D-05  0.00D+00 EMaxC= 1.00D-01 BMatC= 4.93D-06 BMatP= 2.47D-06
 IDIUse=1 WtCom= 1.00D+00 WtEn= 0.00D+00
 Coeff-Com:  0.313D-05-0.708D-03-0.602D-03-0.288D-04 0.393D-02-0.810D-03
 Coeff-Com: -0.189D-01-0.180D-01 0.421D-01 0.519D-01-0.123D+00 0.589D-01
 Coeff-Com: -0.362D-01 0.130D+00-0.104D+00 0.409D-01-0.274D+00 0.660D-01
 Coeff-Com:  0.433D+00 0.750D+00
 Coeff:      0.313D-05-0.708D-03-0.602D-03-0.288D-04 0.393D-02-0.810D-03
 Coeff:     -0.189D-01-0.180D-01 0.421D-01 0.519D-01-0.123D+00 0.589D-01
 Coeff:     -0.362D-01 0.130D+00-0.104D+00 0.409D-01-0.274D+00 0.660D-01
 Coeff:      0.433D+00 0.750D+00
 Gap=     0.357 Goal=   None    Shift=    0.000
 Gap=     0.134 Goal=   None    Shift=    0.000
 RMSDP=3.66D-06 MaxDP=4.37D-04 DE=-7.34D-06 OVMax= 9.18D-04

 Cycle  22  Pass 1  IDiag  1:
 RMSU=  3.66D-06    CP:  1.00D+00
 E= -2839.37093406518     Delta-E=       -0.000001863664 Rises=F Damp=F
 DIIS: error= 8.37D-06 at cycle  22 NSaved=  20.
 NSaved=20 IEnMin=20 EnMin= -2839.37093406518     IErMin=20 ErrMin= 8.37D-06
 ErrMax= 8.37D-06  0.00D+00 EMaxC= 1.00D-01 BMatC= 4.14D-07 BMatP= 2.47D-06
 IDIUse=1 WtCom= 1.00D+00 WtEn= 0.00D+00
 Coeff-Com: -0.196D-03-0.406D-03 0.254D-03 0.356D-02 0.163D-02-0.383D-02
 Coeff-Com: -0.374D-01 0.144D-01 0.558D-01-0.804D-02-0.358D-01-0.574D-01
 Coeff-Com:  0.553D-01 0.516D-01 0.184D-01-0.727D-01-0.130D+00-0.594D-01
 Coeff-Com:  0.161D+00 0.104D+01
 Coeff:     -0.196D-03-0.406D-03 0.254D-03 0.356D-02 0.163D-02-0.383D-02
 Coeff:     -0.374D-01 0.144D-01 0.558D-01-0.804D-02-0.358D-01-0.574D-01
 Coeff:      0.553D-01 0.516D-01 0.184D-01-0.727D-01-0.130D+00-0.594D-01
 Coeff:      0.161D+00 0.104D+01
 Gap=     0.356 Goal=   None    Shift=    0.000
 Gap=     0.135 Goal=   None    Shift=    0.000
 RMSDP=1.10D-05 MaxDP=1.35D-03 DE=-1.86D-06 OVMax= 8.19D-03

 Cycle  23  Pass 1  IDiag  1:
 RMSU=  1.10D-05    CP:  1.00D+00  7.54D-01
 E= -2839.37093448729     Delta-E=       -0.000000422116 Rises=F Damp=F
 DIIS: error= 1.75D-05 at cycle  23 NSaved=  20.
 NSaved=20 IEnMin=20 EnMin= -2839.37093448729     IErMin=19 ErrMin= 8.37D-06
 ErrMax= 1.75D-05  0.00D+00 EMaxC= 1.00D-01 BMatC= 1.98D-06 BMatP= 4.14D-07
 IDIUse=1 WtCom= 1.00D+00 WtEn= 0.00D+00
 Coeff-Com: -0.120D-03 0.582D-04 0.625D-03 0.416D-02-0.176D-02-0.167D-01
 Coeff-Com: -0.374D-02 0.189D-01 0.248D-01-0.285D-01-0.600D-02-0.166D-01
 Coeff-Com:  0.270D-01 0.349D-01 0.353D-01-0.101D+00-0.905D-01-0.211D+00
 Coeff-Com:  0.542D+00 0.788D+00
 Coeff:     -0.120D-03 0.582D-04 0.625D-03 0.416D-02-0.176D-02-0.167D-01
 Coeff:     -0.374D-02 0.189D-01 0.248D-01-0.285D-01-0.600D-02-0.166D-01
 Coeff:      0.270D-01 0.349D-01 0.353D-01-0.101D+00-0.905D-01-0.211D+00
 Coeff:      0.542D+00 0.788D+00
 Gap=     0.356 Goal=   None    Shift=    0.000
 Gap=     0.135 Goal=   None    Shift=    0.000
 RMSDP=3.82D-06 MaxDP=3.73D-04 DE=-4.22D-07 OVMax= 2.63D-03

 Cycle  24  Pass 1  IDiag  1:
 RMSU=  1.14D-06    CP:  1.00D+00  1.17D+00  6.97D-01
 E= -2839.37093523925     Delta-E=       -0.000000751954 Rises=F Damp=F
 DIIS: error= 5.36D-06 at cycle  24 NSaved=  20.
 NSaved=20 IEnMin=20 EnMin= -2839.37093523925     IErMin=20 ErrMin= 5.36D-06
 ErrMax= 5.36D-06  0.00D+00 EMaxC= 1.00D-01 BMatC= 1.12D-07 BMatP= 4.14D-07
 IDIUse=1 WtCom= 1.00D+00 WtEn= 0.00D+00
 Coeff-Com: -0.266D-03 0.372D-03 0.287D-02-0.291D-02-0.762D-03-0.308D-02
 Coeff-Com: -0.481D-02 0.140D-01-0.137D-02 0.678D-02-0.187D-01-0.156D-01
 Coeff-Com:  0.102D-01 0.647D-01-0.186D-02-0.217D-01-0.136D+00-0.328D+00
 Coeff-Com:  0.115D+00 0.132D+01
 Coeff:     -0.266D-03 0.372D-03 0.287D-02-0.291D-02-0.762D-03-0.308D-02
 Coeff:     -0.481D-02 0.140D-01-0.137D-02 0.678D-02-0.187D-01-0.156D-01
 Coeff:      0.102D-01 0.647D-01-0.186D-02-0.217D-01-0.136D+00-0.328D+00
 Coeff:      0.115D+00 0.132D+01
 Gap=     0.356 Goal=   None    Shift=    0.000
 Gap=     0.135 Goal=   None    Shift=    0.000
 RMSDP=1.74D-06 MaxDP=2.26D-04 DE=-7.52D-07 OVMax= 8.30D-04

 Cycle  25  Pass 1  IDiag  1:
 RMSU=  3.31D-07    CP:  1.00D+00  1.46D+00  6.72D-01  2.15D+00
 E= -2839.37093549804     Delta-E=       -0.000000258797 Rises=F Damp=F
 DIIS: error= 4.31D-06 at cycle  25 NSaved=  20.
 NSaved=20 IEnMin=20 EnMin= -2839.37093549804     IErMin=20 ErrMin= 4.31D-06
 ErrMax= 4.31D-06  0.00D+00 EMaxC= 1.00D-01 BMatC= 4.43D-08 BMatP= 1.12D-07
 IDIUse=1 WtCom= 1.00D+00 WtEn= 0.00D+00
 Coeff-Com:  0.595D-03 0.451D-03-0.248D-02 0.473D-02-0.485D-02-0.182D-02
 Coeff-Com: -0.228D-02 0.181D-01-0.117D-01 0.916D-02-0.147D-01-0.226D-01
 Coeff-Com:  0.624D-02 0.507D-01 0.442D-02 0.163D+00-0.433D+00-0.419D+00
 Coeff-Com:  0.170D+00 0.148D+01
 Coeff:      0.595D-03 0.451D-03-0.248D-02 0.473D-02-0.485D-02-0.182D-02
 Coeff:     -0.228D-02 0.181D-01-0.117D-01 0.916D-02-0.147D-01-0.226D-01
 Coeff:      0.624D-02 0.507D-01 0.442D-02 0.163D+00-0.433D+00-0.419D+00
 Coeff:      0.170D+00 0.148D+01
 Gap=     0.356 Goal=   None    Shift=    0.000
 Gap=     0.135 Goal=   None    Shift=    0.000
 RMSDP=2.10D-06 MaxDP=2.73D-04 DE=-2.59D-07 OVMax= 1.07D-03

 Cycle  26  Pass 1  IDiag  1:
 RMSU=  5.39D-07    CP:  1.00D+00  1.67D+00  7.76D-01  3.00D+00  2.60D+00
 E= -2839.37093574439     Delta-E=       -0.000000246349 Rises=F Damp=F
 DIIS: error= 3.32D-06 at cycle  26 NSaved=  20.
 NSaved=20 IEnMin=20 EnMin= -2839.37093574439     IErMin=20 ErrMin= 3.32D-06
 ErrMax= 3.32D-06  0.00D+00 EMaxC= 1.00D-01 BMatC= 3.30D-08 BMatP= 4.43D-08
 IDIUse=1 WtCom= 1.00D+00 WtEn= 0.00D+00
 Coeff-Com: -0.183D-02-0.134D-03 0.789D-02 0.263D-02-0.121D-02-0.190D-01
 Coeff-Com:  0.151D-01-0.486D-02 0.208D-01-0.413D-02-0.296D-01-0.378D-01
 Coeff-Com:  0.271D-01 0.223D-01 0.179D+00-0.492D-01-0.198D+00-0.661D+00
 Coeff-Com:  0.536D+00 0.120D+01
 Coeff:     -0.183D-02-0.134D-03 0.789D-02 0.263D-02-0.121D-02-0.190D-01
 Coeff:      0.151D-01-0.486D-02 0.208D-01-0.413D-02-0.296D-01-0.378D-01
 Coeff:      0.271D-01 0.223D-01 0.179D+00-0.492D-01-0.198D+00-0.661D+00
 Coeff:      0.536D+00 0.120D+01
 Gap=     0.356 Goal=   None    Shift=    0.000
 Gap=     0.134 Goal=   None    Shift=    0.000
 RMSDP=1.86D-06 MaxDP=2.48D-04 DE=-2.46D-07 OVMax= 9.69D-04

 Cycle  27  Pass 1  IDiag  1:
 RMSU=  5.51D-07    CP:  1.00D+00  1.92D+00  8.69D-01  3.00D+00  3.00D+00
                    CP:  2.96D+00
 E= -2839.37093585056     Delta-E=       -0.000000106163 Rises=F Damp=F
 DIIS: error= 5.51D-06 at cycle  27 NSaved=  20.
 NSaved=20 IEnMin=20 EnMin= -2839.37093585056     IErMin=19 ErrMin= 3.32D-06
 ErrMax= 5.51D-06  0.00D+00 EMaxC= 1.00D-01 BMatC= 1.73D-07 BMatP= 3.30D-08
 IDIUse=1 WtCom= 1.00D+00 WtEn= 0.00D+00
 Coeff-Com: -0.605D-03-0.525D-03 0.449D-02 0.649D-03-0.579D-02-0.355D-02
 Coeff-Com:  0.185D-01-0.313D-02 0.561D-02-0.104D-01-0.247D-01 0.103D-01
 Coeff-Com:  0.252D-01-0.460D-01 0.416D-01 0.338D+00-0.216D+00-0.735D+00
 Coeff-Com:  0.308D+00 0.129D+01
 Coeff:     -0.605D-03-0.525D-03 0.449D-02 0.649D-03-0.579D-02-0.355D-02
 Coeff:      0.185D-01-0.313D-02 0.561D-02-0.104D-01-0.247D-01 0.103D-01
 Coeff:      0.252D-01-0.460D-01 0.416D-01 0.338D+00-0.216D+00-0.735D+00
 Coeff:      0.308D+00 0.129D+01
 Gap=     0.356 Goal=   None    Shift=    0.000
 Gap=     0.134 Goal=   None    Shift=    0.000
 RMSDP=1.38D-06 MaxDP=1.81D-04 DE=-1.06D-07 OVMax= 7.21D-04

 Cycle  28  Pass 1  IDiag  1:
 RMSU=  9.92D-07    CP:  1.00D+00  2.07D+00  9.22D-01  3.00D+00  3.00D+00
                    CP:  3.00D+00  1.86D+00
 E= -2839.37093591676     Delta-E=       -0.000000066204 Rises=F Damp=F
 DIIS: error= 6.18D-06 at cycle  28 NSaved=  20.
 NSaved=20 IEnMin=20 EnMin= -2839.37093591676     IErMin=18 ErrMin= 3.32D-06
 ErrMax= 6.18D-06  0.00D+00 EMaxC= 1.00D-01 BMatC= 2.03D-07 BMatP= 3.30D-08
 IDIUse=1 WtCom= 1.00D+00 WtEn= 0.00D+00
 Coeff-Com: -0.423D-02 0.271D-02 0.471D-02 0.534D-02-0.116D-01 0.894D-02
 Coeff-Com: -0.366D-02 0.153D-01-0.245D-02-0.775D-02-0.358D-02 0.217D-02
 Coeff-Com: -0.386D-01-0.143D-01 0.330D+00 0.469D-01-0.672D+00-0.343D+00
 Coeff-Com:  0.679D+00 0.101D+01
 Coeff:     -0.423D-02 0.271D-02 0.471D-02 0.534D-02-0.116D-01 0.894D-02
 Coeff:     -0.366D-02 0.153D-01-0.245D-02-0.775D-02-0.358D-02 0.217D-02
 Coeff:     -0.386D-01-0.143D-01 0.330D+00 0.469D-01-0.672D+00-0.343D+00
 Coeff:      0.679D+00 0.101D+01
 Gap=     0.356 Goal=   None    Shift=    0.000
 Gap=     0.135 Goal=   None    Shift=    0.000
 RMSDP=1.15D-06 MaxDP=1.55D-04 DE=-6.62D-08 OVMax= 6.06D-04

 Cycle  29  Pass 1  IDiag  1:
 RMSU=  9.36D-08    CP:  1.00D+00  2.15D+00  9.43D-01  3.00D+00  3.00D+00
                    CP:  3.00D+00  2.68D+00  2.00D+00
 E= -2839.37093597909     Delta-E=       -0.000000062333 Rises=F Damp=F
 DIIS: error= 4.42D-06 at cycle  29 NSaved=  20.
 NSaved=20 IEnMin=20 EnMin= -2839.37093597909     IErMin=17 ErrMin= 3.32D-06
 ErrMax= 4.42D-06  0.00D+00 EMaxC= 1.00D-01 BMatC= 1.07D-07 BMatP= 3.30D-08
 IDIUse=1 WtCom= 1.00D+00 WtEn= 0.00D+00
 Coeff-Com: -0.217D-02 0.271D-02 0.834D-02-0.556D-02-0.769D-02 0.147D-02
 Coeff-Com:  0.111D-01-0.428D-02 0.708D-02-0.990D-02-0.219D-01 0.355D-01
 Coeff-Com: -0.558D-01 0.404D-01 0.730D-01 0.437D-01-0.161D+00-0.232D+00
 Coeff-Com:  0.684D-01 0.121D+01
 Coeff:     -0.217D-02 0.271D-02 0.834D-02-0.556D-02-0.769D-02 0.147D-02
 Coeff:      0.111D-01-0.428D-02 0.708D-02-0.990D-02-0.219D-01 0.355D-01
 Coeff:     -0.558D-01 0.404D-01 0.730D-01 0.437D-01-0.161D+00-0.232D+00
 Coeff:      0.684D-01 0.121D+01
 Gap=     0.356 Goal=   None    Shift=    0.000
 Gap=     0.135 Goal=   None    Shift=    0.000
 RMSDP=7.55D-07 MaxDP=8.40D-05 DE=-6.23D-08 OVMax= 4.07D-04

 Cycle  30  Pass 1  IDiag  1:
 RMSU=  1.17D-07    CP:  1.00D+00  2.13D+00  9.98D-01  3.00D+00  3.00D+00
                    CP:  3.00D+00  3.00D+00  2.37D+00  1.64D+00
 E= -2839.37093601189     Delta-E=       -0.000000032802 Rises=F Damp=F
 DIIS: error= 1.04D-06 at cycle  30 NSaved=  20.
 NSaved=20 IEnMin=20 EnMin= -2839.37093601189     IErMin=20 ErrMin= 1.04D-06
 ErrMax= 1.04D-06  0.00D+00 EMaxC= 1.00D-01 BMatC= 6.52D-09 BMatP= 3.30D-08
 IDIUse=1 WtCom= 1.00D+00 WtEn= 0.00D+00
 Coeff-Com:  0.841D-03 0.298D-02-0.840D-03-0.157D-02-0.289D-02 0.284D-02
 Coeff-Com: -0.209D-02 0.560D-02-0.665D-02-0.623D-02-0.680D-03 0.645D-02
 Coeff-Com: -0.212D-01 0.228D-01 0.834D-01 0.567D-01-0.198D+00-0.312D+00
 Coeff-Com:  0.298D+00 0.107D+01
 Coeff:      0.841D-03 0.298D-02-0.840D-03-0.157D-02-0.289D-02 0.284D-02
 Coeff:     -0.209D-02 0.560D-02-0.665D-02-0.623D-02-0.680D-03 0.645D-02
 Coeff:     -0.212D-01 0.228D-01 0.834D-01 0.567D-01-0.198D+00-0.312D+00
 Coeff:      0.298D+00 0.107D+01
 Gap=     0.356 Goal=   None    Shift=    0.000
 Gap=     0.135 Goal=   None    Shift=    0.000
 RMSDP=6.38D-07 MaxDP=6.70D-05 DE=-3.28D-08 OVMax= 4.31D-04

 Cycle  31  Pass 1  IDiag  1:
 RMSU=  1.13D-07    CP:  1.00D+00  2.18D+00  9.50D-01  3.00D+00  3.00D+00
                    CP:  3.00D+00  3.00D+00  2.62D+00  2.23D+00  1.88D+00
 E= -2839.37093601009     Delta-E=        0.000000001808 Rises=F Damp=F
 DIIS: error= 2.90D-06 at cycle  31 NSaved=  20.
 NSaved=20 IEnMin=19 EnMin= -2839.37093601189     IErMin=19 ErrMin= 1.04D-06
 ErrMax= 2.90D-06  0.00D+00 EMaxC= 1.00D-01 BMatC= 3.98D-08 BMatP= 6.52D-09
 IDIUse=1 WtCom= 1.00D+00 WtEn= 0.00D+00
 Coeff-Com: -0.284D-02 0.405D-02 0.158D-02-0.194D-02-0.321D-03-0.313D-02
 Coeff-Com: -0.386D-02 0.855D-02 0.800D-02-0.497D-02-0.194D-01-0.153D-01
 Coeff-Com: -0.136D-01 0.748D-01 0.680D-01-0.404D-01-0.124D+00-0.478D+00
 Coeff-Com:  0.517D+00 0.103D+01
 Coeff:     -0.284D-02 0.405D-02 0.158D-02-0.194D-02-0.321D-03-0.313D-02
 Coeff:     -0.386D-02 0.855D-02 0.800D-02-0.497D-02-0.194D-01-0.153D-01
 Coeff:     -0.136D-01 0.748D-01 0.680D-01-0.404D-01-0.124D+00-0.478D+00
 Coeff:      0.517D+00 0.103D+01
 Gap=     0.356 Goal=   None    Shift=    0.000
 Gap=     0.135 Goal=   None    Shift=    0.000
 RMSDP=3.21D-07 MaxDP=2.94D-05 DE= 1.81D-09 OVMax= 1.39D-04

 Cycle  32  Pass 1  IDiag  1:
 RMSU=  4.95D-08    CP:  1.00D+00  2.15D+00  9.70D-01  3.00D+00  3.00D+00
                    CP:  3.00D+00  3.00D+00  2.78D+00  2.74D+00  2.69D+00
                    CP:  1.39D+00
 E= -2839.37093602207     Delta-E=       -0.000000011984 Rises=F Damp=F
 DIIS: error= 4.91D-07 at cycle  32 NSaved=  20.
 NSaved=20 IEnMin=20 EnMin= -2839.37093602207     IErMin=20 ErrMin= 4.91D-07
 ErrMax= 4.91D-07  0.00D+00 EMaxC= 1.00D-01 BMatC= 1.34D-09 BMatP= 6.52D-09
 IDIUse=1 WtCom= 1.00D+00 WtEn= 0.00D+00
 Coeff-Com:  0.129D-02 0.439D-03-0.194D-02 0.126D-02 0.895D-04 0.706D-04
 Coeff-Com:  0.105D-02 0.141D-02-0.106D-01 0.554D-03 0.294D-01-0.927D-02
 Coeff-Com: -0.726D-01 0.409D-02 0.106D+00 0.549D-01-0.239D+00-0.130D+00
 Coeff-Com:  0.108D+00 0.116D+01
 Coeff:      0.129D-02 0.439D-03-0.194D-02 0.126D-02 0.895D-04 0.706D-04
 Coeff:      0.105D-02 0.141D-02-0.106D-01 0.554D-03 0.294D-01-0.927D-02
 Coeff:     -0.726D-01 0.409D-02 0.106D+00 0.549D-01-0.239D+00-0.130D+00
 Coeff:      0.108D+00 0.116D+01
 Gap=     0.356 Goal=   None    Shift=    0.000
 Gap=     0.135 Goal=   None    Shift=    0.000
 RMSDP=3.73D-07 MaxDP=3.82D-05 DE=-1.20D-08 OVMax= 2.61D-04

 Cycle  33  Pass 1  IDiag  1:
 RMSU=  3.82D-08    CP:  1.00D+00  2.18D+00  9.42D-01  3.00D+00  3.00D+00
                    CP:  3.00D+00  3.00D+00  2.92D+00  3.00D+00  3.00D+00
                    CP:  1.97D+00  1.52D+00
 E= -2839.37093602165     Delta-E=        0.000000000424 Rises=F Damp=F
 DIIS: error= 1.29D-06 at cycle  33 NSaved=  20.
 NSaved=20 IEnMin=19 EnMin= -2839.37093602207     IErMin=19 ErrMin= 4.91D-07
 ErrMax= 1.29D-06  0.00D+00 EMaxC= 1.00D-01 BMatC= 8.08D-09 BMatP= 1.34D-09
 IDIUse=1 WtCom= 1.00D+00 WtEn= 0.00D+00
 Coeff-Com: -0.280D-03 0.235D-03 0.160D-02 0.564D-03-0.787D-03-0.395D-04
 Coeff-Com: -0.196D-02-0.410D-02 0.209D-02 0.422D-01-0.170D-01-0.936D-01
 Coeff-Com: -0.266D-01 0.154D+00 0.119D+00-0.818D-01-0.362D+00-0.460D+00
 Coeff-Com:  0.799D+00 0.929D+00
 Coeff:     -0.280D-03 0.235D-03 0.160D-02 0.564D-03-0.787D-03-0.395D-04
 Coeff:     -0.196D-02-0.410D-02 0.209D-02 0.422D-01-0.170D-01-0.936D-01
 Coeff:     -0.266D-01 0.154D+00 0.119D+00-0.818D-01-0.362D+00-0.460D+00
 Coeff:      0.799D+00 0.929D+00
 Gap=     0.356 Goal=   None    Shift=    0.000
 Gap=     0.135 Goal=   None    Shift=    0.000
 RMSDP=1.58D-07 MaxDP=1.74D-05 DE= 4.24D-10 OVMax= 5.01D-05

 Cycle  34  Pass 1  IDiag  1:
 RMSU=  5.20D-08    CP:  1.00D+00  2.16D+00  9.49D-01  3.00D+00  3.00D+00
                    CP:  3.00D+00  3.00D+00  2.99D+00  3.00D+00  3.00D+00
                    CP:  2.24D+00  2.46D+00  2.47D+00
 E= -2839.37093602447     Delta-E=       -0.000000002819 Rises=F Damp=F
 DIIS: error= 1.22D-07 at cycle  34 NSaved=  20.
 NSaved=20 IEnMin=20 EnMin= -2839.37093602447     IErMin=20 ErrMin= 1.22D-07
 ErrMax= 1.22D-07  0.00D+00 EMaxC= 1.00D-01 BMatC= 4.57D-11 BMatP= 1.34D-09
 IDIUse=1 WtCom= 1.00D+00 WtEn= 0.00D+00
 Coeff-Com: -0.250D-03 0.843D-04 0.311D-03 0.780D-03-0.123D-02-0.117D-02
 Coeff-Com: -0.225D-02 0.540D-02 0.838D-02 0.839D-02-0.177D-01-0.144D-01
 Coeff-Com:  0.568D-02-0.707D-03 0.733D-01 0.866D-02-0.129D+00-0.204D+00
 Coeff-Com:  0.399D-01 0.122D+01
 Coeff:     -0.250D-03 0.843D-04 0.311D-03 0.780D-03-0.123D-02-0.117D-02
 Coeff:     -0.225D-02 0.540D-02 0.838D-02 0.839D-02-0.177D-01-0.144D-01
 Coeff:      0.568D-02-0.707D-03 0.733D-01 0.866D-02-0.129D+00-0.204D+00
 Coeff:      0.399D-01 0.122D+01
 Gap=     0.356 Goal=   None    Shift=    0.000
 Gap=     0.135 Goal=   None    Shift=    0.000
 RMSDP=5.06D-08 MaxDP=7.26D-06 DE=-2.82D-09 OVMax= 2.03D-05

 Cycle  35  Pass 1  IDiag  1:
 RMSU=  1.71D-08    CP:  1.00D+00  2.16D+00  9.48D-01  3.00D+00  3.00D+00
                    CP:  3.00D+00  3.00D+00  3.00D+00  3.00D+00  3.00D+00
                    CP:  2.35D+00  2.85D+00  3.00D+00  1.42D+00
 E= -2839.37093602463     Delta-E=       -0.000000000166 Rises=F Damp=F
 DIIS: error= 5.88D-08 at cycle  35 NSaved=  20.
 NSaved=20 IEnMin=20 EnMin= -2839.37093602463     IErMin=20 ErrMin= 5.88D-08
 ErrMax= 5.88D-08  0.00D+00 EMaxC= 1.00D-01 BMatC= 1.31D-11 BMatP= 4.57D-11
 IDIUse=1 WtCom= 1.00D+00 WtEn= 0.00D+00
 Coeff-Com: -0.328D-03-0.228D-03 0.733D-03-0.449D-03-0.113D-03-0.116D-02
 Coeff-Com: -0.173D-02-0.619D-02 0.151D-01 0.178D-01-0.890D-02-0.374D-01
 Coeff-Com: -0.213D-01 0.677D-01 0.742D-01 0.604D-01-0.326D+00-0.220D+00
 Coeff-Com:  0.567D+00 0.821D+00
 Coeff:     -0.328D-03-0.228D-03 0.733D-03-0.449D-03-0.113D-03-0.116D-02
 Coeff:     -0.173D-02-0.619D-02 0.151D-01 0.178D-01-0.890D-02-0.374D-01
 Coeff:     -0.213D-01 0.677D-01 0.742D-01 0.604D-01-0.326D+00-0.220D+00
 Coeff:      0.567D+00 0.821D+00
 Gap=     0.356 Goal=   None    Shift=    0.000
 Gap=     0.135 Goal=   None    Shift=    0.000
 RMSDP=2.49D-08 MaxDP=3.05D-06 DE=-1.66D-10 OVMax= 1.17D-05

 Cycle  36  Pass 1  IDiag  1:
 RMSU=  9.47D-09    CP:  1.00D+00  2.16D+00  9.49D-01  3.00D+00  3.00D+00
                    CP:  3.00D+00  3.00D+00  3.00D+00  3.00D+00  3.00D+00
                    CP:  2.39D+00  3.00D+00  3.00D+00  1.59D+00  1.71D+00
 E= -2839.37093602454     Delta-E=        0.000000000091 Rises=F Damp=F
 DIIS: error= 5.17D-08 at cycle  36 NSaved=  20.
 NSaved=20 IEnMin=19 EnMin= -2839.37093602463     IErMin=20 ErrMin= 5.17D-08
 ErrMax= 5.17D-08  0.00D+00 EMaxC= 1.00D-01 BMatC= 9.60D-12 BMatP= 1.31D-11
 IDIUse=1 WtCom= 1.00D+00 WtEn= 0.00D+00
 Coeff-Com: -0.173D-03 0.212D-03 0.420D-03 0.725D-03-0.203D-02-0.182D-02
 Coeff-Com:  0.972D-03 0.600D-02 0.176D-02-0.763D-02-0.437D-02 0.421D-02
 Coeff-Com: -0.994D-02-0.110D-01 0.453D-01 0.117D-01-0.264D-01-0.225D+00
 Coeff-Com:  0.152D+00 0.107D+01
 Coeff:     -0.173D-03 0.212D-03 0.420D-03 0.725D-03-0.203D-02-0.182D-02
 Coeff:      0.972D-03 0.600D-02 0.176D-02-0.763D-02-0.437D-02 0.421D-02
 Coeff:     -0.994D-02-0.110D-01 0.453D-01 0.117D-01-0.264D-01-0.225D+00
 Coeff:      0.152D+00 0.107D+01
 Gap=     0.356 Goal=   None    Shift=    0.000
 Gap=     0.135 Goal=   None    Shift=    0.000
 RMSDP=1.32D-08 MaxDP=1.77D-06 DE= 9.09D-11 OVMax= 7.50D-06

 Cycle  37  Pass 1  IDiag  1:
 RMSU=  3.50D-09    CP:  1.00D+00  2.16D+00  9.49D-01  3.00D+00  3.00D+00
                    CP:  3.00D+00  3.00D+00  3.00D+00  3.00D+00  3.00D+00
                    CP:  2.43D+00  3.00D+00  3.00D+00  1.73D+00  2.15D+00
                    CP:  1.35D+00
 E= -2839.37093602455     Delta-E=       -0.000000000013 Rises=F Damp=F
 DIIS: error= 1.97D-08 at cycle  37 NSaved=  20.
 NSaved=20 IEnMin=18 EnMin= -2839.37093602463     IErMin=20 ErrMin= 1.97D-08
 ErrMax= 1.97D-08  0.00D+00 EMaxC= 1.00D-01 BMatC= 1.48D-12 BMatP= 9.60D-12
 IDIUse=1 WtCom= 1.00D+00 WtEn= 0.00D+00
 Coeff-Com: -0.345D-04 0.289D-03 0.439D-03-0.106D-02-0.116D-02 0.212D-02
 Coeff-Com:  0.578D-03-0.280D-02-0.213D-02 0.474D-02 0.451D-02-0.127D-01
 Coeff-Com: -0.155D-01 0.126D-01 0.659D-01 0.243D-01-0.238D+00-0.120D+00
 Coeff-Com:  0.456D+00 0.823D+00
 Coeff:     -0.345D-04 0.289D-03 0.439D-03-0.106D-02-0.116D-02 0.212D-02
 Coeff:      0.578D-03-0.280D-02-0.213D-02 0.474D-02 0.451D-02-0.127D-01
 Coeff:     -0.155D-01 0.126D-01 0.659D-01 0.243D-01-0.238D+00-0.120D+00
 Coeff:      0.456D+00 0.823D+00
 Gap=     0.356 Goal=   None    Shift=    0.000
 Gap=     0.135 Goal=   None    Shift=    0.000
 RMSDP=1.56D-08 MaxDP=2.28D-06 DE=-1.27D-11 OVMax= 1.14D-05

 Cycle  38  Pass 1  IDiag  1:
 RMSU=  2.32D-09    CP:  1.00D+00  2.16D+00  9.50D-01  3.00D+00  3.00D+00
                    CP:  3.00D+00  3.00D+00  3.00D+00  3.00D+00  3.00D+00
                    CP:  2.44D+00  3.00D+00  3.00D+00  1.75D+00  2.26D+00
                    CP:  1.52D+00  1.84D+00
 E= -2839.37093602457     Delta-E=       -0.000000000020 Rises=F Damp=F
 DIIS: error= 1.22D-08 at cycle  38 NSaved=  20.
 NSaved=20 IEnMin=17 EnMin= -2839.37093602463     IErMin=20 ErrMin= 1.22D-08
 ErrMax= 1.22D-08  0.00D+00 EMaxC= 1.00D-01 BMatC= 5.72D-13 BMatP= 1.48D-12
 IDIUse=1 WtCom= 1.00D+00 WtEn= 0.00D+00
 Coeff-Com: -0.133D-03 0.465D-04-0.397D-04 0.673D-04 0.365D-04-0.501D-03
 Coeff-Com: -0.545D-03 0.330D-02 0.109D-02-0.640D-02 0.431D-02 0.606D-02
 Coeff-Com: -0.122D-01-0.662D-02 0.744D-02 0.593D-01-0.897D-01-0.297D+00
 Coeff-Com:  0.188D+00 0.114D+01
 Coeff:     -0.133D-03 0.465D-04-0.397D-04 0.673D-04 0.365D-04-0.501D-03
 Coeff:     -0.545D-03 0.330D-02 0.109D-02-0.640D-02 0.431D-02 0.606D-02
 Coeff:     -0.122D-01-0.662D-02 0.744D-02 0.593D-01-0.897D-01-0.297D+00
 Coeff:      0.188D+00 0.114D+01
 Gap=     0.356 Goal=   None    Shift=    0.000
 Gap=     0.135 Goal=   None    Shift=    0.000
 RMSDP=6.44D-09 MaxDP=9.82D-07 DE=-2.00D-11 OVMax= 3.66D-06

 Error on total polarization charges =  0.00332
 SCF Done:  E(UCAM-B3LYP) =  -2839.37093602     A.U. after   38 cycles
            NFock= 38  Conv=0.64D-08     -V/T= 2.0075
 <Sx>= 0.0000 <Sy>= 0.0000 <Sz>= 0.5000 <S**2>= 0.7670 S= 0.5085
 <L.S>= 0.000000000000E+00
 KE= 2.818332078059D+03 PE=-1.897000938589D+04 EE= 7.160792545544D+03
 Annihilation of the first spin contaminant:
 S**2 before annihilation     0.7670,   after     0.7502
 Leave Link  502 at Sun Mar  3 17:37:15 2024, MaxMem=  5368709120 cpu:      5127.8
 (Enter /home/k0335/k033513/app/g09/l601.exe)
 Copying SCF densities to generalized density rwf, IOpCl= 1 IROHF=0.

 **********************************************************************

            Population analysis using the SCF density.

 **********************************************************************

 Alpha  occ. eigenvalues --  -24.87584 -24.86957 -24.86940 -24.86935 -24.86929
 Alpha  occ. eigenvalues --  -24.86690 -24.86426 -24.86277 -24.86269 -24.86070
 Alpha  occ. eigenvalues --  -24.86061 -24.85897 -24.85867 -24.85793 -24.85524
 Alpha  occ. eigenvalues --  -24.85397 -24.85339 -24.85145 -19.36648 -19.35828
 Alpha  occ. eigenvalues --  -19.32764 -19.32747 -14.66149 -14.56896 -14.56794
 Alpha  occ. eigenvalues --  -10.62561 -10.61816 -10.58561 -10.58252 -10.57106
 Alpha  occ. eigenvalues --  -10.57076 -10.52840 -10.52796 -10.52788 -10.52441
 Alpha  occ. eigenvalues --  -10.42995 -10.40278 -10.34056 -10.30681 -10.28015
 Alpha  occ. eigenvalues --   -1.45957  -1.45690  -1.45089  -1.44551  -1.42799
 Alpha  occ. eigenvalues --   -1.42580  -1.38819  -1.38599  -1.36465  -1.36461
 Alpha  occ. eigenvalues --   -1.36289  -1.35647  -1.35639  -1.35584  -1.35405
 Alpha  occ. eigenvalues --   -1.35130  -1.34795  -1.34649  -1.30122  -1.25430
 Alpha  occ. eigenvalues --   -1.23996  -1.23148  -1.18860  -1.17087  -1.12285
 Alpha  occ. eigenvalues --   -0.98011  -0.96709  -0.96302  -0.91290  -0.90339
 Alpha  occ. eigenvalues --   -0.90134  -0.85877  -0.85150  -0.84555  -0.83997
 Alpha  occ. eigenvalues --   -0.81489  -0.79116  -0.78901  -0.77532  -0.76635
 Alpha  occ. eigenvalues --   -0.76226  -0.75376  -0.75239  -0.73829  -0.73393
 Alpha  occ. eigenvalues --   -0.73013  -0.72850  -0.72437  -0.72186  -0.71587
 Alpha  occ. eigenvalues --   -0.71385  -0.71214  -0.70615  -0.70345  -0.69795
 Alpha  occ. eigenvalues --   -0.69194  -0.68359  -0.68148  -0.67480  -0.66887
 Alpha  occ. eigenvalues --   -0.65914  -0.63328  -0.63166  -0.62197  -0.61730
 Alpha  occ. eigenvalues --   -0.61337  -0.60723  -0.60428  -0.60070  -0.59947
 Alpha  occ. eigenvalues --   -0.59787  -0.59344  -0.59204  -0.58999  -0.58779
 Alpha  occ. eigenvalues --   -0.58687  -0.58400  -0.58005  -0.57904  -0.57549
 Alpha  occ. eigenvalues --   -0.56999  -0.56829  -0.56484  -0.56037  -0.55884
 Alpha  occ. eigenvalues --   -0.55571  -0.55433  -0.55170  -0.54842  -0.54636
 Alpha  occ. eigenvalues --   -0.54576  -0.54231  -0.53956  -0.53746  -0.53646
 Alpha  occ. eigenvalues --   -0.53452  -0.53241  -0.53030  -0.52883  -0.52745
 Alpha  occ. eigenvalues --   -0.52444  -0.52305  -0.52052  -0.51903  -0.51148
 Alpha  occ. eigenvalues --   -0.50965  -0.49958  -0.49659  -0.48606  -0.48119
 Alpha  occ. eigenvalues --   -0.47424  -0.46522  -0.45453  -0.44806  -0.44494
 Alpha  occ. eigenvalues --   -0.44062  -0.43831  -0.42573
 Alpha virt. eigenvalues --   -0.06939  -0.01167   0.01377   0.02151   0.03156
 Alpha virt. eigenvalues --    0.05579   0.07373   0.09479   0.09863   0.10860
 Alpha virt. eigenvalues --    0.11876   0.12253   0.13046   0.13268   0.13554
 Alpha virt. eigenvalues --    0.14644   0.15312   0.15949   0.16215   0.16360
 Alpha virt. eigenvalues --    0.16838   0.17547   0.17761   0.18554   0.19074
 Alpha virt. eigenvalues --    0.19263   0.19415   0.19866   0.19992   0.20501
 Alpha virt. eigenvalues --    0.20831   0.21097   0.21169   0.21227   0.21855
 Alpha virt. eigenvalues --    0.22511   0.22574   0.23083   0.23394   0.24024
 Alpha virt. eigenvalues --    0.24849   0.25541   0.26553   0.27242   0.27933
 Alpha virt. eigenvalues --    0.28006   0.28465   0.30291   0.30846   0.32248
 Alpha virt. eigenvalues --    0.34117   0.36117   0.39444   0.42929   0.43422
 Alpha virt. eigenvalues --    0.45010   0.46188   0.46398   0.47073   0.47441
 Alpha virt. eigenvalues --    0.48148   0.48965   0.49640   0.50088   0.50676
 Alpha virt. eigenvalues --    0.50929   0.51653   0.51701   0.51835   0.52497
 Alpha virt. eigenvalues --    0.52678   0.53238   0.53901   0.54786   0.55305
 Alpha virt. eigenvalues --    0.56367   0.56785   0.58084   0.58375   0.59530
 Alpha virt. eigenvalues --    0.60019   0.60754   0.61251   0.61696   0.62683
 Alpha virt. eigenvalues --    0.63391   0.63804   0.65109   0.66678   0.67531
 Alpha virt. eigenvalues --    0.68999   0.70317   0.71429   0.72807   0.73115
 Alpha virt. eigenvalues --    0.73908   0.75239   0.76038   0.77256   0.79238
 Alpha virt. eigenvalues --    0.80111   0.80284   0.82017   0.82095   0.82737
 Alpha virt. eigenvalues --    0.84059   0.84894   0.85951   0.86304   0.86951
 Alpha virt. eigenvalues --    0.87245   0.88150   0.88809   0.89983   0.91172
 Alpha virt. eigenvalues --    0.91619   0.92572   0.93414   0.93893   0.94914
 Alpha virt. eigenvalues --    0.95950   0.96564   0.96609   0.97712   0.99517
 Alpha virt. eigenvalues --    1.00082   1.00446   1.01296   1.01738   1.02318
 Alpha virt. eigenvalues --    1.03330   1.04518   1.04649   1.05413   1.06884
 Alpha virt. eigenvalues --    1.07493   1.08652   1.08725   1.10299   1.10839
 Alpha virt. eigenvalues --    1.11782   1.12354   1.12720   1.13210   1.13416
 Alpha virt. eigenvalues --    1.13874   1.14468   1.14972   1.15659   1.17178
 Alpha virt. eigenvalues --    1.17494   1.17893   1.18241   1.19866   1.20564
 Alpha virt. eigenvalues --    1.21187   1.22026   1.22664   1.23659   1.23972
 Alpha virt. eigenvalues --    1.24780   1.25143   1.25635   1.26362   1.26746
 Alpha virt. eigenvalues --    1.27964   1.28536   1.29485   1.30089   1.30545
 Alpha virt. eigenvalues --    1.31627   1.31906   1.32461   1.32815   1.33319
 Alpha virt. eigenvalues --    1.33729   1.34027   1.34593   1.35037   1.36024
 Alpha virt. eigenvalues --    1.36349   1.37097   1.37386   1.37634   1.37776
 Alpha virt. eigenvalues --    1.38178   1.38578   1.39176   1.39638   1.39929
 Alpha virt. eigenvalues --    1.40139   1.40481   1.40963   1.41769   1.42070
 Alpha virt. eigenvalues --    1.43508   1.44343   1.44511   1.45581   1.46208
 Alpha virt. eigenvalues --    1.46846   1.47462   1.48391   1.49313   1.49790
 Alpha virt. eigenvalues --    1.50510   1.51644   1.52064   1.52361   1.53000
 Alpha virt. eigenvalues --    1.53901   1.54685   1.54990   1.55370   1.56475
 Alpha virt. eigenvalues --    1.57478   1.58652   1.59238   1.60021   1.60616
 Alpha virt. eigenvalues --    1.60940   1.61107   1.62717   1.63409   1.64272
 Alpha virt. eigenvalues --    1.65089   1.65737   1.66858   1.67774   1.68479
 Alpha virt. eigenvalues --    1.68766   1.69582   1.70238   1.70742   1.71729
 Alpha virt. eigenvalues --    1.72052   1.72678   1.72957   1.73376   1.73476
 Alpha virt. eigenvalues --    1.74707   1.75800   1.75871   1.76635   1.77239
 Alpha virt. eigenvalues --    1.78607   1.79046   1.79522   1.80006   1.80326
 Alpha virt. eigenvalues --    1.80592   1.81022   1.81127   1.81727   1.82491
 Alpha virt. eigenvalues --    1.82654   1.83370   1.83663   1.83957   1.84776
 Alpha virt. eigenvalues --    1.84912   1.85323   1.85549   1.86058   1.86789
 Alpha virt. eigenvalues --    1.87092   1.87205   1.87864   1.88241   1.88637
 Alpha virt. eigenvalues --    1.88835   1.89314   1.89689   1.90232   1.91176
 Alpha virt. eigenvalues --    1.91251   1.92080   1.92237   1.92482   1.93053
 Alpha virt. eigenvalues --    1.93624   1.94734   1.94835   1.95386   1.95927
 Alpha virt. eigenvalues --    1.96346   1.96593   1.97316   1.97568   1.98138
 Alpha virt. eigenvalues --    1.98392   1.98921   1.99861   2.00235   2.00700
 Alpha virt. eigenvalues --    2.01133   2.01207   2.01470   2.01757   2.01920
 Alpha virt. eigenvalues --    2.02446   2.03114   2.03761   2.04836   2.04974
 Alpha virt. eigenvalues --    2.05396   2.05832   2.06629   2.06983   2.07987
 Alpha virt. eigenvalues --    2.08197   2.08742   2.09147   2.09395   2.09669
 Alpha virt. eigenvalues --    2.09848   2.10502   2.11082   2.11358   2.11731
 Alpha virt. eigenvalues --    2.12591   2.13743   2.14207   2.15257   2.15902
 Alpha virt. eigenvalues --    2.16150   2.16855   2.17406   2.18339   2.18496
 Alpha virt. eigenvalues --    2.19342   2.19924   2.20295   2.21033   2.21762
 Alpha virt. eigenvalues --    2.22792   2.24626   2.25070   2.25471   2.26740
 Alpha virt. eigenvalues --    2.27154   2.27724   2.28570   2.29653   2.30350
 Alpha virt. eigenvalues --    2.31196   2.31541   2.31936   2.34100   2.34982
 Alpha virt. eigenvalues --    2.36346   2.37345   2.37441   2.38046   2.38920
 Alpha virt. eigenvalues --    2.40451   2.40894   2.41707   2.41868   2.42364
 Alpha virt. eigenvalues --    2.43703   2.44408   2.45060   2.46038   2.47703
 Alpha virt. eigenvalues --    2.48903   2.50154   2.51050   2.51796   2.52098
 Alpha virt. eigenvalues --    2.52873   2.53793   2.55209   2.55596   2.56854
 Alpha virt. eigenvalues --    2.57994   2.58759   2.59026   2.61050   2.62343
 Alpha virt. eigenvalues --    2.63621   2.64223   2.64702   2.65689   2.66423
 Alpha virt. eigenvalues --    2.67321   2.69120   2.70636   2.70785   2.73334
 Alpha virt. eigenvalues --    2.74134   2.74301   2.75175   2.76223   2.76570
 Alpha virt. eigenvalues --    2.78092   2.79943   2.80616   2.81308   2.82200
 Alpha virt. eigenvalues --    2.82667   2.83585   2.84111   2.84677   2.85613
 Alpha virt. eigenvalues --    2.86380   2.86628   2.87227   2.88637   2.89879
 Alpha virt. eigenvalues --    2.90430   2.90911   2.91720   2.92619   2.93732
 Alpha virt. eigenvalues --    2.94825   2.95197   2.95704   2.95950   2.97989
 Alpha virt. eigenvalues --    2.98740   3.01271   3.02147   3.03600   3.03779
 Alpha virt. eigenvalues --    3.04152   3.05124   3.05865   3.08082   3.08310
 Alpha virt. eigenvalues --    3.09126   3.11727   3.13171   3.13827   3.14983
 Alpha virt. eigenvalues --    3.16422   3.19159   3.20920   3.21347   3.22556
 Alpha virt. eigenvalues --    3.23822   3.25179   3.26057   3.27390   3.28669
 Alpha virt. eigenvalues --    3.29737   3.32831   3.33984   3.35159   3.36454
 Alpha virt. eigenvalues --    3.38801   3.41684   3.47117   3.50186   3.50884
 Alpha virt. eigenvalues --    3.55871   3.60254   3.96281   4.01741   4.10578
 Alpha virt. eigenvalues --    4.11742   4.13210   4.20752   4.25627   4.28529
 Alpha virt. eigenvalues --    4.30002   4.32177   4.33656   4.36426   4.42916
 Alpha virt. eigenvalues --    4.46336   4.47355   4.52967   4.54118   4.56579
 Alpha virt. eigenvalues --    4.62540   4.64563   4.66712   4.71951   4.73794
 Alpha virt. eigenvalues --    4.74061   4.77065   4.90601   4.92670   4.95596
 Alpha virt. eigenvalues --    5.07014   5.07415   5.17823   5.29479   5.47014
 Alpha virt. eigenvalues --    5.51866   5.70194   5.84528   6.03095   6.30524
 Alpha virt. eigenvalues --    6.34581   6.53369
  Beta  occ. eigenvalues --  -24.87584 -24.86952 -24.86939 -24.86927 -24.86921
  Beta  occ. eigenvalues --  -24.86688 -24.86424 -24.86277 -24.86269 -24.86070
  Beta  occ. eigenvalues --  -24.86061 -24.85897 -24.85866 -24.85781 -24.85524
  Beta  occ. eigenvalues --  -24.85397 -24.85339 -24.85144 -19.36648 -19.35826
  Beta  occ. eigenvalues --  -19.32357 -19.32301 -14.64864 -14.56870 -14.56733
  Beta  occ. eigenvalues --  -10.62561 -10.61816 -10.58561 -10.58252 -10.57109
  Beta  occ. eigenvalues --  -10.57081 -10.53010 -10.52962 -10.52796 -10.52440
  Beta  occ. eigenvalues --  -10.43001 -10.40209 -10.33860 -10.30641 -10.28008
  Beta  occ. eigenvalues --   -1.45956  -1.45689  -1.45089  -1.44546  -1.42791
  Beta  occ. eigenvalues --   -1.42561  -1.38818  -1.38598  -1.36463  -1.36458
  Beta  occ. eigenvalues --   -1.36286  -1.35644  -1.35630  -1.35578  -1.35389
  Beta  occ. eigenvalues --   -1.35129  -1.34792  -1.34646  -1.29009  -1.24763
  Beta  occ. eigenvalues --   -1.23993  -1.23145  -1.18085  -1.15382  -1.12052
  Beta  occ. eigenvalues --   -0.97729  -0.96562  -0.96023  -0.91162  -0.90174
  Beta  occ. eigenvalues --   -0.89817  -0.85577  -0.84984  -0.84489  -0.83984
  Beta  occ. eigenvalues --   -0.81219  -0.79015  -0.78682  -0.77491  -0.76458
  Beta  occ. eigenvalues --   -0.76179  -0.75332  -0.75233  -0.73822  -0.73381
  Beta  occ. eigenvalues --   -0.72975  -0.72526  -0.72254  -0.71786  -0.71543
  Beta  occ. eigenvalues --   -0.71190  -0.70811  -0.70586  -0.70269  -0.69387
  Beta  occ. eigenvalues --   -0.69111  -0.68207  -0.67624  -0.67141  -0.66772
  Beta  occ. eigenvalues --   -0.65025  -0.63297  -0.62040  -0.61714  -0.61473
  Beta  occ. eigenvalues --   -0.61169  -0.60453  -0.60207  -0.59999  -0.59796
  Beta  occ. eigenvalues --   -0.59491  -0.59324  -0.58991  -0.58796  -0.58717
  Beta  occ. eigenvalues --   -0.58622  -0.58165  -0.57966  -0.57884  -0.57483
  Beta  occ. eigenvalues --   -0.56919  -0.56524  -0.56280  -0.55780  -0.55566
  Beta  occ. eigenvalues --   -0.55520  -0.55337  -0.55095  -0.54730  -0.54584
  Beta  occ. eigenvalues --   -0.54467  -0.54212  -0.53709  -0.53586  -0.53566
  Beta  occ. eigenvalues --   -0.53241  -0.53220  -0.52964  -0.52785  -0.52432
  Beta  occ. eigenvalues --   -0.52343  -0.52046  -0.51893  -0.51625  -0.51138
  Beta  occ. eigenvalues --   -0.50927  -0.49712  -0.49313  -0.47973  -0.47052
  Beta  occ. eigenvalues --   -0.46184  -0.44646  -0.44549  -0.44258  -0.43689
  Beta  occ. eigenvalues --   -0.43375  -0.41484
  Beta virt. eigenvalues --   -0.28014  -0.06048   0.00490   0.01464   0.02382
  Beta virt. eigenvalues --    0.03170   0.05656   0.07706   0.09565   0.09916
  Beta virt. eigenvalues --    0.11100   0.11977   0.12338   0.13176   0.13363
  Beta virt. eigenvalues --    0.13647   0.14765   0.15370   0.16143   0.16271
  Beta virt. eigenvalues --    0.16474   0.16864   0.17872   0.18047   0.18636
  Beta virt. eigenvalues --    0.19176   0.19283   0.19460   0.19881   0.20047
  Beta virt. eigenvalues --    0.20537   0.20871   0.21124   0.21198   0.21303
  Beta virt. eigenvalues --    0.21986   0.22611   0.23069   0.23126   0.23414
  Beta virt. eigenvalues --    0.24311   0.24886   0.25731   0.26653   0.27334
[...]
    37   Atom        0.000337     -0.000172     -0.000165
    38   Atom        0.000007      0.000164     -0.000171
    39   Atom        0.058018      0.039461     -0.097480
    40   Atom       -0.194566     -0.284826      0.479393
    41   Atom       -0.002668      0.002559      0.000109
    42   Atom       -0.001052      0.002865     -0.001813
    43   Atom       -0.001022      0.002411     -0.001389
    44   Atom       -0.002506     -0.003244      0.005750
    45   Atom        0.003636     -0.001946     -0.001690
    46   Atom        0.001475     -0.006578      0.005103
    47   Atom        0.000669      0.001591     -0.002259
    48   Atom       -0.001309      0.012052     -0.010743
    49   Atom        0.009388     -0.004381     -0.005008
    50   Atom       -0.002511      0.002231      0.000280
    51   Atom       -0.000461      0.002604     -0.002144
 --------------------------------------------------------
                        XY            XZ            YZ
 --------------------------------------------------------
     1   Atom        0.003902      0.007113      0.003227
     2   Atom        0.028441      0.022791      0.023304
     3   Atom        0.053577      0.097442      0.087246
     4   Atom        0.008123      0.058545     -0.006495
     5   Atom       -0.014389      0.489425     -0.064772
     6   Atom       -0.018628     -0.052866      0.010531
     7   Atom        0.005137      0.339379      0.020020
     8   Atom        0.004021      0.007191      0.013004
     9   Atom        0.000574     -0.000166     -0.000808
    10   Atom       -0.008796     -0.001282      0.007928
    11   Atom        0.004073     -0.000873     -0.000145
    12   Atom       -0.000977      0.000458     -0.001476
    13   Atom       -0.000368      0.000505     -0.001242
    14   Atom       -0.001526      0.001259     -0.001377
    15   Atom       -0.000366     -0.000022      0.000008
    16   Atom       -0.000710     -0.000019      0.000088
    17   Atom       -0.000290     -0.000041      0.000063
    18   Atom       -0.000224      0.000016      0.000026
    19   Atom       -0.001802      0.000725     -0.001668
    20   Atom       -0.003795      0.007354     -0.008911
    21   Atom       -0.003538      0.000945     -0.001777
    22   Atom       -0.001678      0.000935     -0.001168
    23   Atom        0.005889      0.000498     -0.001190
    24   Atom        0.010066      0.030598      0.016391
    25   Atom        0.002333     -0.001566     -0.000717
    26   Atom       -0.003399     -0.015182     -0.000786
    27   Atom       -0.001255     -0.004247      0.001958
    28   Atom        0.001284     -0.000454     -0.000309
    29   Atom        0.000510     -0.000251     -0.000090
    30   Atom        0.001023      0.000005      0.000100
    31   Atom        0.001002      0.000495      0.000409
    32   Atom        0.002061      0.003181      0.002064
    33   Atom        0.000688      0.000411      0.000197
    34   Atom        0.000745      0.000361      0.000344
    35   Atom        0.000846     -0.000612     -0.000516
    36   Atom        0.000570     -0.000382     -0.000407
    37   Atom        0.000616     -0.000707     -0.000426
    38   Atom        0.000851     -0.000618     -0.000702
    39   Atom       -0.012079     -0.041622      0.002965
    40   Atom        0.032924      0.298127      0.111195
    41   Atom        0.000834      0.000787     -0.001089
    42   Atom        0.001793     -0.000088     -0.000455
    43   Atom       -0.000254     -0.000191      0.001514
    44   Atom        0.001814      0.004580      0.000403
    45   Atom        0.004175     -0.002446      0.000542
    46   Atom        0.001400     -0.005324      0.008881
    47   Atom       -0.004129      0.011384     -0.000594
    48   Atom       -0.009469     -0.001150     -0.003848
    49   Atom        0.000470     -0.010801     -0.001580
    50   Atom        0.002557     -0.001702     -0.004624
    51   Atom        0.002215     -0.000451     -0.000622
 --------------------------------------------------------


 ---------------------------------------------------------------------------------
              Anisotropic Spin Dipole Couplings in Principal Axis System
 ---------------------------------------------------------------------------------

       Atom             a.u.   MegaHertz   Gauss  10(-4) cm-1        Axes

              Baa    -0.0072    -0.970    -0.346    -0.324  0.7119 -0.0707 -0.6987
     1 C(13)  Bbb    -0.0025    -0.332    -0.119    -0.111 -0.2843  0.8808 -0.3787
              Bcc     0.0097     1.302     0.465     0.434  0.6422  0.4682  0.6070
 
              Baa    -0.0255    -3.421    -1.221    -1.141 -0.1646 -0.5107  0.8438
     2 C(13)  Bbb    -0.0249    -3.347    -1.194    -1.116  0.7751 -0.5961 -0.2096
              Bcc     0.0504     6.768     2.415     2.257  0.6101  0.6195  0.4940
 
              Baa    -0.0891   -11.954    -4.265    -3.987 -0.4601 -0.6230  0.6326
     3 C(13)  Bbb    -0.0878   -11.776    -4.202    -3.928  0.7484 -0.6555 -0.1012
              Bcc     0.1768    23.730     8.468     7.916  0.4777  0.4269  0.7678
 
              Baa    -0.0737    -9.890    -3.529    -3.299  0.8032 -0.5252 -0.2811
     4 C(13)  Bbb    -0.0518    -6.956    -2.482    -2.320  0.5031  0.8508 -0.1519
              Bcc     0.1255    16.846     6.011     5.619  0.3189 -0.0194  0.9476
 
              Baa    -0.6741   -25.999    -9.277    -8.672  0.8218 -0.5209 -0.2309
     5 N(14)  Bbb    -0.6689   -25.796    -9.205    -8.605  0.5115  0.8530 -0.1036
              Bcc     1.3430    51.796    18.482    17.277  0.2509 -0.0330  0.9674
 
              Baa    -0.1113   -14.940    -5.331    -4.983  0.3268 -0.0236  0.9448
     6 C(13)  Bbb     0.0344     4.617     1.648     1.540  0.6258  0.7545 -0.1977
              Bcc     0.0769    10.323     3.683     3.443  0.7082 -0.6559 -0.2613
 
              Baa    -0.3358    24.300     8.671     8.106  0.1724  0.9808 -0.0913
     7 O(17)  Bbb    -0.3216    23.268     8.303     7.761  0.9114 -0.1940 -0.3628
              Bcc     0.6574   -47.568   -16.974   -15.867  0.3736  0.0206  0.9274
 
              Baa    -0.0225    -0.867    -0.309    -0.289  0.9811 -0.1671 -0.0976
     8 N(14)  Bbb    -0.0107    -0.412    -0.147    -0.137  0.1248  0.9319 -0.3406
              Bcc     0.0332     1.279     0.456     0.427  0.1479  0.3220  0.9351
 
              Baa    -0.0025    -0.329    -0.117    -0.110  0.0923  0.1200  0.9885
     9 C(13)  Bbb    -0.0015    -0.198    -0.071    -0.066  0.9897 -0.1204 -0.0778
              Bcc     0.0039     0.527     0.188     0.176  0.1097  0.9854 -0.1299
 
              Baa    -0.0107    -5.396    -1.925    -1.800 -0.5428 -0.4697  0.6962
    10 F(19)  Bbb    -0.0069    -3.444    -1.229    -1.149  0.7573  0.0847  0.6476
              Bcc     0.0176     8.840     3.154     2.949 -0.3631  0.8788  0.3097
 
              Baa    -0.0035    -1.775    -0.633    -0.592  0.4663 -0.2949  0.8340
    11 F(19)  Bbb    -0.0022    -1.127    -0.402    -0.376  0.6266 -0.5554 -0.5468
              Bcc     0.0058     2.903     1.036     0.968  0.6244  0.7776 -0.0742
 
              Baa    -0.0017    -0.232    -0.083    -0.077 -0.1894  0.3038  0.9337
    12 C(13)  Bbb    -0.0013    -0.176    -0.063    -0.059  0.9482  0.3035  0.0936
              Bcc     0.0030     0.408     0.146     0.136 -0.2549  0.9031 -0.3456
 
              Baa    -0.0014    -0.679    -0.242    -0.227 -0.2830  0.4212  0.8617
    13 F(19)  Bbb    -0.0004    -0.219    -0.078    -0.073  0.9240  0.3608  0.1271
              Bcc     0.0018     0.899     0.321     0.300 -0.2574  0.8321 -0.4912
 
              Baa    -0.0016     0.117     0.042     0.039  0.7238  0.0677 -0.6867
    14 O(17)  Bbb    -0.0012     0.090     0.032     0.030  0.4414  0.7195  0.5362
              Bcc     0.0029    -0.207    -0.074    -0.069 -0.5303  0.6912 -0.4909
 
              Baa    -0.0005    -0.072    -0.026    -0.024  0.7684  0.1869  0.6121
    15 C(13)  Bbb    -0.0005    -0.067    -0.024    -0.022 -0.5923 -0.1549  0.7907
              Bcc     0.0010     0.139     0.049     0.046 -0.2426  0.9701  0.0084
 
              Baa    -0.0006    -0.322    -0.115    -0.107 -0.3525 -0.2173  0.9103
    16 F(19)  Bbb    -0.0006    -0.294    -0.105    -0.098  0.8294  0.3779  0.4114
              Bcc     0.0012     0.615     0.220     0.205 -0.4334  0.9000  0.0470
 
              Baa    -0.0004    -0.187    -0.067    -0.062  0.8668  0.2302  0.4424
    17 F(19)  Bbb    -0.0003    -0.161    -0.057    -0.054 -0.4060 -0.1895  0.8940
              Bcc     0.0007     0.347     0.124     0.116 -0.2896  0.9545  0.0708
 
              Baa    -0.0006    -0.322    -0.115    -0.107  0.9847  0.1300 -0.1165
    18 F(19)  Bbb    -0.0005    -0.238    -0.085    -0.079  0.1175  0.0001  0.9931
              Bcc     0.0011     0.559     0.200     0.187 -0.1291  0.9915  0.0152
 
              Baa    -0.0018    -0.246    -0.088    -0.082  0.6340  0.5865  0.5040
    19 C(13)  Bbb    -0.0015    -0.201    -0.072    -0.067 -0.6432  0.0381  0.7647
              Bcc     0.0033     0.447     0.160     0.149 -0.4293  0.8091 -0.4014
 
              Baa    -0.0098    -4.945    -1.764    -1.649  0.7916  0.6108 -0.0174
    20 F(19)  Bbb    -0.0086    -4.316    -1.540    -1.440 -0.5258  0.6952  0.4901
              Bcc     0.0184     9.260     3.304     3.089  0.3115 -0.3788  0.8715
 
              Baa    -0.0029    -1.467    -0.523    -0.489  0.5318  0.5410  0.6516
    21 F(19)  Bbb    -0.0026    -1.299    -0.464    -0.433 -0.6673 -0.2061  0.7157
              Bcc     0.0055     2.766     0.987     0.923 -0.5215  0.8154 -0.2514
 
              Baa    -0.0015    -0.731    -0.261    -0.244  0.5171  0.7409  0.4285
    22 F(19)  Bbb    -0.0012    -0.602    -0.215    -0.201 -0.5988 -0.0446  0.7996
              Bcc     0.0027     1.334     0.476     0.445 -0.6116  0.6701 -0.4206
 
              Baa    -0.0061    -0.824    -0.294    -0.275  0.8258 -0.5204 -0.2173
    23 C(13)  Bbb    -0.0012    -0.166    -0.059    -0.055  0.2303 -0.0404  0.9723
              Bcc     0.0074     0.990     0.353     0.330  0.5147  0.8530 -0.0865
 
              Baa    -0.0382    -1.474    -0.526    -0.492 -0.5028  0.8643  0.0134
    24 N(14)  Bbb    -0.0292    -1.126    -0.402    -0.376  0.7933  0.4675 -0.3899
              Bcc     0.0674     2.600     0.928     0.867  0.3433  0.1854  0.9207
 
              Baa    -0.0028    -0.371    -0.132    -0.124  0.3073 -0.0121  0.9515
    25 C(13)  Bbb    -0.0014    -0.186    -0.066    -0.062 -0.4870  0.8571  0.1682
              Bcc     0.0041     0.556     0.198     0.186  0.8176  0.5151 -0.2574
 
              Baa    -0.0143    -7.178    -2.561    -2.394  0.3656  0.7661  0.5286
    26 F(19)  Bbb    -0.0095    -4.751    -1.695    -1.585  0.3420 -0.6388  0.6892
              Bcc     0.0238    11.930     4.257     3.979  0.8657 -0.0711 -0.4955
 
              Baa    -0.0195    -9.790    -3.493    -3.266 -0.0036  0.9460 -0.3242
    27 F(19)  Bbb    -0.0135    -6.777    -2.418    -2.261  0.0956  0.3231  0.9415
              Bcc     0.0330    16.567     5.912     5.526  0.9954 -0.0276 -0.0916
 
              Baa    -0.0011    -0.143    -0.051    -0.048  0.0722  0.2221  0.9723
    28 C(13)  Bbb    -0.0009    -0.126    -0.045    -0.042 -0.5506  0.8218 -0.1468
              Bcc     0.0020     0.269     0.096     0.090  0.8317  0.5247 -0.1817
 
              Baa    -0.0005    -0.256    -0.091    -0.085  0.3123 -0.2992  0.9016
    29 F(19)  Bbb    -0.0005    -0.233    -0.083    -0.078 -0.2958  0.8713  0.3916
              Bcc     0.0010     0.490     0.175     0.163  0.9028  0.3890 -0.1835
 
              Baa    -0.0008     0.057     0.020     0.019  0.2902 -0.3540  0.8891
    30 O(17)  Bbb    -0.0006     0.045     0.016     0.015 -0.6186  0.6395  0.4565
              Bcc     0.0014    -0.101    -0.036    -0.034  0.7301  0.6825  0.0334
 
              Baa    -0.0008    -0.111    -0.040    -0.037  0.0241 -0.4709  0.8819
    31 C(13)  Bbb    -0.0007    -0.097    -0.035    -0.032 -0.6341  0.6748  0.3776
              Bcc     0.0016     0.209     0.074     0.070  0.7729  0.5683  0.2823
 
              Baa    -0.0028    -1.424    -0.508    -0.475 -0.5446  0.8387  0.0002
    32 F(19)  Bbb    -0.0024    -1.197    -0.427    -0.399 -0.5722 -0.3717  0.7311
              Bcc     0.0052     2.621     0.935     0.874  0.6132  0.3980  0.6823
 
              Baa    -0.0006    -0.319    -0.114    -0.106 -0.3032  0.0584  0.9511
    33 F(19)  Bbb    -0.0006    -0.306    -0.109    -0.102 -0.3916  0.9023 -0.1802
              Bcc     0.0012     0.625     0.223     0.208  0.8687  0.4271  0.2507
 
              Baa    -0.0006    -0.293    -0.104    -0.098 -0.4929  0.0850  0.8659
    34 F(19)  Bbb    -0.0005    -0.267    -0.095    -0.089 -0.5635  0.7271 -0.3921
              Bcc     0.0011     0.560     0.200     0.187  0.6630  0.6812  0.3105
 
              Baa    -0.0007    -0.096    -0.034    -0.032  0.1522  0.4478  0.8811
    35 C(13)  Bbb    -0.0007    -0.092    -0.033    -0.031  0.6968 -0.6808  0.2256
              Bcc     0.0014     0.188     0.067     0.063  0.7009  0.5796 -0.4157
 
              Baa    -0.0005    -0.252    -0.090    -0.084 -0.5441  0.7789  0.3117
    36 F(19)  Bbb    -0.0004    -0.216    -0.077    -0.072  0.5508  0.0514  0.8331
              Bcc     0.0009     0.469     0.167     0.156  0.6329  0.6250 -0.4570
 
              Baa    -0.0007    -0.334    -0.119    -0.111  0.5996 -0.0594  0.7981
    37 F(19)  Bbb    -0.0006    -0.286    -0.102    -0.095 -0.3450  0.8806  0.3247
              Bcc     0.0012     0.620     0.221     0.207  0.7221  0.4700 -0.5075
 
              Baa    -0.0008    -0.388    -0.138    -0.129 -0.6595  0.7310  0.1751
    38 F(19)  Bbb    -0.0007    -0.352    -0.126    -0.117  0.4743  0.2240  0.8514
              Bcc     0.0015     0.740     0.264     0.247  0.5832  0.6446 -0.4944
 
              Baa    -0.1079   -14.482    -5.167    -4.831  0.2433  0.0004  0.9699
    39 C(13)  Bbb     0.0349     4.678     1.669     1.560  0.3366  0.9378 -0.0849
              Bcc     0.0731     9.804     3.498     3.270  0.9097 -0.3471 -0.2280
 
              Baa    -0.3130    22.651     8.082     7.555  0.7611  0.5383 -0.3619
    40 O(17)  Bbb    -0.2943    21.296     7.599     7.103 -0.5459  0.8329  0.0907
              Bcc     0.6073   -43.946   -15.681   -14.659  0.3502  0.1286  0.9278
 
              Baa    -0.0031    -1.649    -0.589    -0.550  0.9350 -0.1951 -0.2962
    41 H(1)   Bbb     0.0001     0.038     0.014     0.013  0.3424  0.2781  0.8974
              Bcc     0.0030     1.611     0.575     0.537  0.0927  0.9405 -0.3269
 
              Baa    -0.0019    -1.012    -0.361    -0.338 -0.4254  0.2435  0.8717
    42 H(1)   Bbb    -0.0017    -0.909    -0.324    -0.303  0.8304 -0.2779  0.4829
              Bcc     0.0036     1.921     0.686     0.641  0.3598  0.9292 -0.0840
 
              Baa    -0.0019    -1.029    -0.367    -0.343  0.1076 -0.3219  0.9406
    43 H(1)   Bbb    -0.0010    -0.552    -0.197    -0.184  0.9913  0.1070 -0.0768
              Bcc     0.0030     1.581     0.564     0.527 -0.0759  0.9407  0.3306
 
              Baa    -0.0056    -2.962    -1.057    -0.988  0.7755 -0.5585 -0.2944
    44 H(1)   Bbb    -0.0023    -1.253    -0.447    -0.418  0.4754  0.8234 -0.3098
              Bcc     0.0079     4.215     1.504     1.406  0.4154  0.1004  0.9041
 
              Baa    -0.0051    -2.696    -0.962    -0.899 -0.4862  0.7354 -0.4720
    45 H(1)   Bbb    -0.0013    -0.682    -0.243    -0.228 -0.0259  0.5278  0.8490
              Bcc     0.0063     3.379     1.206     1.127  0.8735  0.4250 -0.2375
 
              Baa    -0.0124    -6.636    -2.368    -2.214 -0.2738  0.8221 -0.4993
    46 H(1)   Bbb     0.0008     0.451     0.161     0.150  0.8797  0.4239  0.2156
              Bcc     0.0116     6.186     2.207     2.063 -0.3889  0.3802  0.8392
 
              Baa    -0.0127    -6.751    -2.409    -2.252 -0.6698 -0.1639  0.7243
    47 H(1)   Bbb     0.0008     0.406     0.145     0.135  0.1384  0.9307  0.3387
              Bcc     0.0119     6.345     2.264     2.116  0.7296 -0.3270  0.6006
 
              Baa    -0.0123    -6.567    -2.343    -2.190  0.3274  0.2703  0.9054
    48 H(1)   Bbb    -0.0050    -2.643    -0.943    -0.882  0.8326  0.3705 -0.4117
              Bcc     0.0173     9.210     3.286     3.072 -0.4467  0.8886 -0.1038
 
              Baa    -0.0110    -5.868    -2.094    -1.957  0.4577  0.1756  0.8716
    49 H(1)   Bbb    -0.0042    -2.263    -0.807    -0.755 -0.1347  0.9827 -0.1272
              Bcc     0.0152     8.131     2.901     2.712  0.8788  0.0592 -0.4735
 
              Baa    -0.0038    -2.006    -0.716    -0.669  0.6905 -0.6031 -0.3994
    50 H(1)   Bbb    -0.0032    -1.713    -0.611    -0.571  0.6549  0.2866  0.6993
              Bcc     0.0070     3.718     1.327     1.240  0.3072  0.7444 -0.5928
 
              Baa    -0.0023    -1.205    -0.430    -0.402  0.2072  0.0308  0.9778
    51 H(1)   Bbb    -0.0016    -0.855    -0.305    -0.285  0.8619 -0.4785 -0.1676
              Bcc     0.0039     2.060     0.735     0.687  0.4627  0.8775 -0.1257
 

 ---------------------------------------------------------------------------------

 No NMR shielding tensors so no spin-rotation constants.
 Leave Link  601 at Sun Mar  3 17:37:15 2024, MaxMem=  5368709120 cpu:         6.8
 (Enter /home/k0335/k033513/app/g09/l9999.exe)
 1\1\GINC-C24U16N1\SP\UCAM-B3LYP\6-31G(d,p)\C15H11F18N3O4(1+,2)\K033513
 \03-Mar-2024\0\\#p CAM-B3LYP/6-31G(d,p) SCRF=(PCM,Solvent=Generic,Read
 ) NoSymm out=wfn\\Title A1635117082_p1\\1,2\C,0,-1.89564,-5.580473,-0.
 217871\C,0,-2.657972,-4.314004,-0.575286\C,0,-1.766537,-3.075948,-0.68
 1172\C,0,-1.134593,-2.667015,0.652834\N,0,-0.380674,-1.419379,0.511013
 \C,0,-1.039642,-0.234403,0.785703\O,0,-2.198303,-0.184576,1.187323\N,0
 ,-0.316094,0.90704,0.580733\C,0,-0.968874,2.198927,0.726204\F,0,-1.680
 235,2.243328,1.879399\F,0,0.055747,3.091779,0.933953\C,0,-1.796422,2.7
 58181,-0.459824\F,0,-1.007802,2.58867,-1.588703\O,0,-1.989001,4.183305
 ,-0.452737\C,0,-2.576844,4.691419,0.718294\F,0,-3.641939,3.964657,1.07
 126\F,0,-2.973986,5.954444,0.480431\F,0,-1.677479,4.703258,1.712616\C,
 0,-3.077767,1.958718,-0.699744\F,0,-2.797057,0.729904,-1.199547\F,0,-3
 .848128,1.799289,0.388797\F,0,-3.844173,2.575792,-1.638149\C,0,0.83165
 7,0.826772,-0.265402\N,0,1.637933,-0.305582,0.062189\C,0,3.042566,-0.4
 01842,-0.344799\F,0,3.10687,-1.062991,-1.528749\F,0,3.648737,-1.215124
 ,0.577106\C,0,3.949191,0.862751,-0.404588\F,0,5.269089,0.493298,-0.325
 544\O,0,3.740373,1.837028,0.62544\C,0,3.966367,1.323138,1.918182\F,0,2
 .903456,0.59226,2.291725\F,0,5.079956,0.581558,1.981367\F,0,4.085003,2
 .361939,2.765962\C,0,3.784952,1.505063,-1.782972\F,0,4.514489,2.644979
 ,-1.879495\F,0,4.186422,0.701027,-2.790777\F,0,2.502135,1.850288,-2.04
 1509\C,0,0.973185,-1.512533,0.203596\O,0,1.538176,-2.595968,0.074953\H
 ,0,-1.478647,-5.526564,0.791936\H,0,-2.566583,-6.44485,-0.252848\H,0,-
 1.076921,-5.75855,-0.922175\H,0,-3.154833,-4.467603,-1.54067\H,0,-3.44
 8836,-4.142701,0.164159\H,0,-0.981511,-3.247632,-1.42808\H,0,-2.374481
 ,-2.244999,-1.061219\H,0,-0.466899,-3.455047,1.016645\H,0,-1.916814,-2
 .542281,1.410481\H,0,0.504842,0.736202,-1.307185\H,0,1.413541,1.735052
 ,-0.123254\\Version=ES64L-G09RevD.01\HF=-2839.370936\S2=0.767017\S2-1=
 0.\S2A=0.750202\RMSD=6.442e-09\Dipole=-1.643512,-4.0753462,-0.0919518\
 Quadrupole=-3.5283639,11.5535191,-8.0251552,14.0003872,1.4713716,0.137
 3821\PG=C01 [X(C15H11F18N3O4)]\\@

 Writing a WFN file to "A1635117082/A1635117082_p1.wfn"



 IN THIS SHORT LIFE

 THAT ONLY LASTS AN HOUR

 HOW MUCH, HOW LITTLE, IS WITHIN OUR POWER....


 EMILY DICKINSON BOLTS OF MELODY NO. 521
 Job cpu time:       0 days  1 hours 26 minutes 22.2 seconds.
 File lengths (MBytes):  RWF=    656 Int=      0 D2E=      0 Chk=     22 Scr=      1
 Normal termination of Gaussian 09 at Sun Mar  3 17:37:16 2024.
