 Entering Gaussian System, Link 0=g09
 Initial command:
 /home/k0335/k033513/app/g09/l1.exe "/home/k0335/k033513/app/g09/scratch/Gau-260588.inp" -scrdir="/home/k0335/k033513/app/g09/scratch/"
 Default is to use a total of  36 processors:
                               36 via shared-memory
                                1 via Linda
 Entering Link 1 = /home/k0335/k033513/app/g09/l1.exe PID=    260589.
  
 Copyright (c) 1988,1990,1992,1993,1995,1998,2003,2009,2013,
            Gaussian, Inc.  All Rights Reserved.
  
 This is part of the Gaussian(R) 09 program.  It is based on
 the Gaussian(R) 03 system (copyright 2003, Gaussian, Inc.),
 the Gaussian(R) 98 system (copyright 1998, Gaussian, Inc.),
 the Gaussian(R) 94 system (copyright 1995, Gaussian, Inc.),
 the Gaussian 92(TM) system (copyright 1992, Gaussian, Inc.),
 the Gaussian 90(TM) system (copyright 1990, Gaussian, Inc.),
 the Gaussian 88(TM) system (copyright 1988, Gaussian, Inc.),
 the Gaussian 86(TM) system (copyright 1986, Carnegie Mellon
 University), and the Gaussian 82(TM) system (copyright 1983,
 Carnegie Mellon University). Gaussian is a federally registered
 trademark of Gaussian, Inc.
  
 This software contains proprietary and confidential information,
 including trade secrets, belonging to Gaussian, Inc.
  
 This software is provided under written license and may be
 used, copied, transmitted, or stored only in accord with that
 written license.
  
 The following legend is applicable only to US Government
 contracts under FAR:
  
                    RESTRICTED RIGHTS LEGEND
  
 Use, reproduction and disclosure by the US Government is
 subject to restrictions as set forth in subparagraphs (a)
 and (c) of the Commercial Computer Software - Restricted
 Rights clause in FAR 52.227-19.
  
 Gaussian, Inc.
 340 Quinnipiac St., Bldg. 40, Wallingford CT 06492
  
  
 ---------------------------------------------------------------
 Warning -- This program may not be used in any manner that
 competes with the business of Gaussian, Inc. or will provide
 assistance to any competitor of Gaussian, Inc.  The licensee
 of this program is prohibited from giving any competitor of
 Gaussian, Inc. access to this program.  By using this program,
 the user acknowledges that Gaussian, Inc. is engaged in the
 business of creating and licensing software in the field of
 computational chemistry and represents and warrants to the
 licensee that it is not a competitor of Gaussian, Inc. and that
 it will not use this program in any manner prohibited above.
 ---------------------------------------------------------------
  

 Cite this work as:
 Gaussian 09, Revision D.01,
 M. J. Frisch, G. W. Trucks, H. B. Schlegel, G. E. Scuseria, 
 M. A. Robb, J. R. Cheeseman, G. Scalmani, V. Barone, B. Mennucci, 
 G. A. Petersson, H. Nakatsuji, M. Caricato, X. Li, H. P. Hratchian, 
 A. F. Izmaylov, J. Bloino, G. Zheng, J. L. Sonnenberg, M. Hada, 
 M. Ehara, K. Toyota, R. Fukuda, J. Hasegawa, M. Ishida, T. Nakajima, 
 Y. Honda, O. Kitao, H. Nakai, T. Vreven, J. A. Montgomery, Jr., 
 J. E. Peralta, F. Ogliaro, M. Bearpark, J. J. Heyd, E. Brothers, 
 K. N. Kudin, V. N. Staroverov, T. Keith, R. Kobayashi, J. Normand, 
 K. Raghavachari, A. Rendell, J. C. Burant, S. S. Iyengar, J. Tomasi, 
 M. Cossi, N. Rega, J. M. Millam, M. Klene, J. E. Knox, J. B. Cross, 
 V. Bakken, C. Adamo, J. Jaramillo, R. Gomperts, R. E. Stratmann, 
 O. Yazyev, A. J. Austin, R. Cammi, C. Pomelli, J. W. Ochterski, 
 R. L. Martin, K. Morokuma, V. G. Zakrzewski, G. A. Voth, 
 P. Salvador, J. J. Dannenberg, S. Dapprich, A. D. Daniels, 
 O. Farkas, J. B. Foresman, J. V. Ortiz, J. Cioslowski, 
 and D. J. Fox, Gaussian, Inc., Wallingford CT, 2013.
 
 ******************************************
 Gaussian 09:  ES64L-G09RevD.01 24-Apr-2013
                 3-Mar-2024 
 ******************************************
 %nprocshared=24
 Will use up to   24 processors via shared memory.
 %mem=40GB
 %rwf=A893053702/A893053702_0.rwf
 %nosave
 %chk=A893053702/A893053702_0.chk
 ----------------------------------------------------------------------
 #p CAM-B3LYP/6-31G(d,p) SCRF=(PCM,Solvent=Generic,Read) NoSymm out=wfn
 ----------------------------------------------------------------------
 1/38=1,40=2/1;
 2/12=2,15=1,17=6,18=5,40=1/2;
 3/5=1,6=6,7=101,11=2,16=1,25=1,30=1,70=2203,72=-2,74=-40/1,2,3;
 4//1;
 5/5=2,38=5/2;
 6/7=2,8=2,9=2,10=2,28=1/1;
 99/5=1,6=100,9=1/99;
 Leave Link    1 at Sun Mar  3 18:02:07 2024, MaxMem=  5368709120 cpu:         2.6
 (Enter /home/k0335/k033513/app/g09/l101.exe)
 ------------------
 Title A893053702_0
 ------------------
 Symbolic Z-matrix:
 Charge =  0 Multiplicity = 1
 O                     2.65898  -1.98285   0.14206 
 C                     1.46468  -1.72247   0.27489 
 N                     0.4873   -2.5669   -0.20113 
 C                     0.90149  -3.81126  -0.84089 
 I                     1.13933  -3.4547   -2.94206 
 C                    -0.86246  -2.30467  -0.09264 
 O                    -1.69804  -3.14149  -0.43091 
 N                    -1.20644  -1.06026   0.39228 
 C                    -2.64274  -0.77562   0.39345 
 F                    -3.11507  -0.96031  -0.87233 
 F                    -3.21252  -1.76853   1.14468 
 C                    -3.21317   0.56995   0.9303 
 F                    -2.73367   0.7439    2.21319 
 O                    -2.8979    1.80365   0.27243 
 C                    -2.93875   1.76272  -1.12687 
 F                    -4.12208   1.29851  -1.54667 
 F                    -1.95033   0.97716  -1.59032 
 F                    -2.76505   3.00643  -1.60646 
 C                    -4.73517   0.37612   1.05554 
 F                    -5.05902  -0.5158    2.02159 
 F                    -5.31927  -0.05009  -0.08278 
 F                    -5.34269   1.54218   1.39508 
 C                    -0.26108  -0.12533   0.70866 
 O                    -0.52983   1.06566   0.80237 
 N                     1.02366  -0.57331   0.87856 
 C                     2.0311    0.39813   1.29411 
 F                     3.05844  -0.26855   1.89554 
 F                     1.50785   1.14482   2.30906 
 C                     2.57831   1.31959   0.17087 
 F                     1.56919   2.11923  -0.28388 
 O                     2.96324   0.52694  -0.95753 
 C                     3.69273   1.24471  -1.91774 
 F                     4.95457   1.40423  -1.48945 
 F                     3.12869   2.43786  -2.15834 
 F                     3.7081    0.53378  -3.05976 
 C                     3.66243   2.17586   0.84076 
 F                     3.21714   2.8192    1.94178 
 F                     4.1242    3.13644   0.0041 
 F                     4.73241   1.43659   1.20934 
 H                     1.84554  -4.16521  -0.41323 
 H                     0.15591  -4.5963   -0.67761 
 
 NAtoms=     41 NQM=       41 NQMF=       0 NMMI=      0 NMMIF=      0
                NMic=       0 NMicF=      0.
                    Isotopes and Nuclear Properties:
 (Nuclear quadrupole moments (NQMom) in fm**2, nuclear magnetic moments (NMagM)
  in nuclear magnetons)

  Atom         1           2           3           4           5           6           7           8           9          10
 IAtWgt=          16          12          14          12         127          12          16          14          12          19
 AtmWgt=  15.9949146  12.0000000  14.0030740  12.0000000 126.9004000  12.0000000  15.9949146  14.0030740  12.0000000  18.9984033
 NucSpn=           0           0           2           0           5           0           0           2           0           1
 AtZEff=   0.0000000   0.0000000   0.0000000   0.0000000   0.0000000   0.0000000   0.0000000   0.0000000   0.0000000   0.0000000
 NQMom=    0.0000000   0.0000000   2.0440000   0.0000000 -71.0000000   0.0000000   0.0000000   2.0440000   0.0000000   0.0000000
 NMagM=    0.0000000   0.0000000   0.4037610   0.0000000   2.8132800   0.0000000   0.0000000   0.4037610   0.0000000   2.6288670
 AtZNuc=   8.0000000   6.0000000   7.0000000   6.0000000  53.0000000   6.0000000   8.0000000   7.0000000   6.0000000   9.0000000

  Atom        11          12          13          14          15          16          17          18          19          20
 IAtWgt=          19          12          19          16          12          19          19          19          12          19
 AtmWgt=  18.9984033  12.0000000  18.9984033  15.9949146  12.0000000  18.9984033  18.9984033  18.9984033  12.0000000  18.9984033
 NucSpn=           1           0           1           0           0           1           1           1           0           1
 AtZEff=   0.0000000   0.0000000   0.0000000   0.0000000   0.0000000   0.0000000   0.0000000   0.0000000   0.0000000   0.0000000
 NQMom=    0.0000000   0.0000000   0.0000000   0.0000000   0.0000000   0.0000000   0.0000000   0.0000000   0.0000000   0.0000000
 NMagM=    2.6288670   0.0000000   2.6288670   0.0000000   0.0000000   2.6288670   2.6288670   2.6288670   0.0000000   2.6288670
 AtZNuc=   9.0000000   6.0000000   9.0000000   8.0000000   6.0000000   9.0000000   9.0000000   9.0000000   6.0000000   9.0000000

  Atom        21          22          23          24          25          26          27          28          29          30
 IAtWgt=          19          19          12          16          14          12          19          19          12          19
 AtmWgt=  18.9984033  18.9984033  12.0000000  15.9949146  14.0030740  12.0000000  18.9984033  18.9984033  12.0000000  18.9984033
 NucSpn=           1           1           0           0           2           0           1           1           0           1
 AtZEff=   0.0000000   0.0000000   0.0000000   0.0000000   0.0000000   0.0000000   0.0000000   0.0000000   0.0000000   0.0000000
 NQMom=    0.0000000   0.0000000   0.0000000   0.0000000   2.0440000   0.0000000   0.0000000   0.0000000   0.0000000   0.0000000
 NMagM=    2.6288670   2.6288670   0.0000000   0.0000000   0.4037610   0.0000000   2.6288670   2.6288670   0.0000000   2.6288670
 AtZNuc=   9.0000000   9.0000000   6.0000000   8.0000000   7.0000000   6.0000000   9.0000000   9.0000000   6.0000000   9.0000000

  Atom        31          32          33          34          35          36          37          38          39          40
 IAtWgt=          16          12          19          19          19          12          19          19          19           1
 AtmWgt=  15.9949146  12.0000000  18.9984033  18.9984033  18.9984033  12.0000000  18.9984033  18.9984033  18.9984033   1.0078250
 NucSpn=           0           0           1           1           1           0           1           1           1           1
 AtZEff=   0.0000000   0.0000000   0.0000000   0.0000000   0.0000000   0.0000000   0.0000000   0.0000000   0.0000000   0.0000000
 NQMom=    0.0000000   0.0000000   0.0000000   0.0000000   0.0000000   0.0000000   0.0000000   0.0000000   0.0000000   0.0000000
 NMagM=    0.0000000   0.0000000   2.6288670   2.6288670   2.6288670   0.0000000   2.6288670   2.6288670   2.6288670   2.7928460
 AtZNuc=   8.0000000   6.0000000   9.0000000   9.0000000   9.0000000   6.0000000   9.0000000   9.0000000   9.0000000   1.0000000

  Atom        41
 IAtWgt=           1
 AtmWgt=   1.0078250
 NucSpn=           1
 AtZEff=   0.0000000
 NQMom=    0.0000000
 NMagM=    2.7928460
 AtZNuc=   1.0000000
 Leave Link  101 at Sun Mar  3 18:02:07 2024, MaxMem=  5368709120 cpu:         0.9
 (Enter /home/k0335/k033513/app/g09/l202.exe)
                          Input orientation:                          
 ---------------------------------------------------------------------
 Center     Atomic      Atomic             Coordinates (Angstroms)
 Number     Number       Type             X           Y           Z
 ---------------------------------------------------------------------
      1          8           0        2.658977   -1.982851    0.142058
      2          6           0        1.464681   -1.722468    0.274887
      3          7           0        0.487297   -2.566904   -0.201134
      4          6           0        0.901490   -3.811255   -0.840893
      5         53           0        1.139332   -3.454700   -2.942064
      6          6           0       -0.862461   -2.304674   -0.092642
      7          8           0       -1.698042   -3.141486   -0.430911
      8          7           0       -1.206435   -1.060259    0.392280
      9          6           0       -2.642739   -0.775622    0.393454
     10          9           0       -3.115070   -0.960314   -0.872331
     11          9           0       -3.212524   -1.768525    1.144679
     12          6           0       -3.213173    0.569945    0.930296
     13          9           0       -2.733674    0.743904    2.213188
     14          8           0       -2.897902    1.803652    0.272425
     15          6           0       -2.938751    1.762722   -1.126871
     16          9           0       -4.122080    1.298509   -1.546674
     17          9           0       -1.950327    0.977163   -1.590321
     18          9           0       -2.765051    3.006432   -1.606455
     19          6           0       -4.735171    0.376115    1.055540
     20          9           0       -5.059019   -0.515803    2.021591
     21          9           0       -5.319266   -0.050090   -0.082780
     22          9           0       -5.342694    1.542175    1.395081
     23          6           0       -0.261084   -0.125326    0.708659
     24          8           0       -0.529828    1.065660    0.802366
     25          7           0        1.023664   -0.573314    0.878555
     26          6           0        2.031096    0.398133    1.294111
     27          9           0        3.058441   -0.268549    1.895539
     28          9           0        1.507847    1.144815    2.309058
     29          6           0        2.578310    1.319589    0.170868
     30          9           0        1.569193    2.119234   -0.283882
     31          8           0        2.963244    0.526936   -0.957529
     32          6           0        3.692727    1.244707   -1.917742
     33          9           0        4.954572    1.404234   -1.489446
     34          9           0        3.128691    2.437858   -2.158342
     35          9           0        3.708096    0.533776   -3.059759
     36          6           0        3.662433    2.175864    0.840763
     37          9           0        3.217140    2.819196    1.941781
     38          9           0        4.124201    3.136439    0.004101
     39          9           0        4.732411    1.436587    1.209339
     40          1           0        1.845543   -4.165208   -0.413228
     41          1           0        0.155906   -4.596297   -0.677614
 ---------------------------------------------------------------------
                    Distance matrix (angstroms):
                    1          2          3          4          5
     1  O    0.000000
     2  C    1.229547   0.000000
     3  N    2.274883   1.376571   0.000000
     4  C    2.719929   2.434169   1.459197   0.000000
     5  I    3.739982   3.668140   2.953985   2.144439   0.000000
     6  C    3.543893   2.426856   1.379269   2.437455   3.667280
     7  O    4.544705   3.537595   2.271266   2.715556   3.801932
     8  N    3.981858   2.754480   2.343256   3.678592   4.727983
     9  C    5.443234   4.216809   3.655045   4.827032   5.710271
    10  F    5.950982   4.782375   4.001085   4.925607   5.348429
    11  F    5.960345   4.757616   4.017125   5.004034   6.203491
    12  C    6.451374   5.250432   4.981308   6.265978   7.080765
    13  F    6.387915   5.240819   5.212011   6.579613   7.694483
    14  O    6.725586   5.609426   5.548476   6.870374   7.367663
    15  C    6.853762   5.788064   5.598255   6.774840   6.866380
    16  F    7.720225   6.607290   6.164272   7.200283   7.226518
    17  F    5.745303   4.735957   4.520206   5.623473   5.569076
    18  F    7.574320   6.617596   6.604148   7.778847   7.666439
    19  C    7.814896   6.591785   6.124930   7.273409   8.072532
    20  F    8.077892   6.860443   6.317368   7.387928   8.467263
    21  F    8.212093   6.996193   6.329655   7.308824   7.840941
    22  F    8.833041   7.632371   7.308983   8.523416   9.262626
    23  C    3.506878   2.391085   2.710922   4.163984   5.135531
    24  O    4.460707   3.468423   3.903470   5.341654   6.102500
    25  N    2.281112   1.370936   2.329768   3.668200   4.786741
    26  C    2.718556   2.420040   3.662037   4.853164   5.795235
    27  F    2.484572   2.698234   4.035995   4.969030   6.102208
    28  F    3.975334   3.515825   4.595590   5.903600   6.990395
    29  C    3.303551   3.241157   4.428944   5.491898   5.878336
    30  F    4.265695   3.883532   4.810118   5.993896   6.190271
    31  O    2.756937   2.970582   4.034141   4.804616   4.808166
    32  C    3.965923   4.309981   5.267818   5.874807   5.445502
    33  F    4.404987   5.006843   6.114428   6.636974   6.346290
    34  F    5.005511   5.098808   5.987927   6.763691   6.268493
    35  F    4.205436   4.609058   5.306553   5.628472   4.745560
    36  C    4.334746   4.510801   5.801800   6.804143   7.237339
    37  F    5.158508   5.145518   6.407355   7.554362   8.217725
    38  F    5.326635   5.545751   6.767371   7.705215   7.812326
    39  F    4.138934   4.640139   6.003196   6.813168   7.353166
    40  H    2.394306   2.566230   2.108173   1.095179   2.720031
    41  H    3.710435   3.298339   2.110756   1.094918   2.719946
                    6          7          8          9         10
     6  C    0.000000
     7  O    1.229990   0.000000
     8  N    1.379143   2.291468   0.000000
     9  C    2.396597   2.677563   1.464237   0.000000
    10  F    2.736689   2.638244   2.291750   1.363605   0.000000
    11  F    2.709468   2.580923   2.256577   1.369252   2.175093
    12  C    3.851712   4.233583   2.640838   1.556967   2.366597
    13  F    4.255833   4.812489   2.983818   2.372480   3.545455
    14  O    4.599417   5.136997   3.328275   2.594689   2.999523
    15  C    4.682341   5.106366   3.643894   2.973584   2.740585
    16  F    5.071711   5.180197   4.221885   3.202275   2.563414
    17  F    3.767884   4.286158   2.938566   2.736248   2.371909
    18  F    5.841175   6.349591   4.791889   4.280015   4.049262
    19  C    4.847972   4.879263   3.867178   2.478533   2.850869
    20  F    5.028035   4.919872   4.218233   2.925191   3.514443
    21  F    4.994633   4.774012   4.261631   2.813715   2.512047
    22  F    6.089668   6.209220   4.988678   3.696647   4.045481
    23  C    2.398603   3.529970   1.366705   2.488879   3.367784
    24  O    3.502975   4.537155   2.268369   2.832300   3.686822
    25  N    2.738302   3.964580   2.333864   3.703885   4.510487
    26  C    4.195345   5.423198   3.663579   4.902409   5.746466
    27  F    4.844806   6.024140   4.590834   5.917502   6.800874
    28  F    4.825505   6.013113   3.987946   4.958324   5.993677
    29  C    5.004361   6.208906   4.476270   5.630169   6.220997
    30  F    5.051779   6.194483   4.274398   5.155516   5.636684
    31  O    4.837568   5.955018   4.661265   5.911756   6.258200
    32  C    6.056305   7.107021   5.886498   7.039992   7.231950
    33  F    7.038816   8.126582   6.897291   8.125037   8.431550
    34  F    6.533607   7.576968   6.126648   7.081491   7.223984
    35  F    6.144149   7.045901   6.213705   7.346585   7.319340
    36  C    6.435925   7.656766   5.863404   6.976141   7.661909
    37  F    6.858284   8.081981   6.084336   7.046859   7.893086
    38  F    7.381183   8.573219   6.795487   7.826065   8.364124
    39  F    6.855274   8.062251   6.493975   7.742892   8.465308
    40  H    3.301159   3.688538   4.427654   5.681963   5.923665
    41  H    2.575034   2.369485   3.937539   4.855632   4.894647
                   11         12         13         14         15
    11  F    0.000000
    12  C    2.348276   0.000000
    13  F    2.771878   1.380577   0.000000
    14  O    3.690564   1.433256   2.217340   0.000000
    15  C    4.207683   2.393734   3.498005   1.400490   0.000000
    16  F    4.180595   2.737206   4.046211   2.250089   1.338654
    17  F    4.075803   2.848529   3.890337   2.247400   1.344943
    18  F    5.528941   3.545756   4.439560   2.234842   1.344242
    19  C    2.631707   1.539394   2.341241   2.454931   3.148447
    20  F    2.397463   2.403523   2.651566   3.620757   4.427192
    21  F    2.982958   2.417932   3.547842   3.070103   3.169111
    22  F    3.944751   2.386654   2.848424   2.702912   3.491107
    23  C    3.406056   3.040946   3.022064   3.296068   3.755502
    24  O    3.917479   2.731747   2.636453   2.536384   3.163979
    25  N    4.409608   4.388679   4.199273   4.625585   5.017921
    26  C    5.675587   5.259680   4.864904   5.226313   5.694088
    27  F    6.491434   6.400618   5.888511   6.512030   7.016219
    28  F    5.667912   4.951716   4.261505   4.898221   5.653287
    29  C    6.634645   5.888970   5.720110   5.498502   5.684932
    30  F    6.326158   5.171610   5.161546   4.512650   4.599923
    31  O    6.915817   6.458627   6.523450   6.123383   6.032362
    32  C    8.132680   7.500539   7.655979   6.967470   6.698531
    33  F    9.149124   8.559395   8.558894   8.057610   7.909774
    34  F    8.295457   7.297124   7.506469   6.529217   6.191413
    35  F    8.418603   7.989106   8.327336   7.507013   7.030430
    36  C    7.931936   7.061229   6.696585   6.595418   6.900572
    37  F    7.938711   6.887028   6.308144   6.419643   6.959005
    38  F    8.898715   7.828268   7.591755   7.152500   7.283645
    39  F    8.567317   7.997577   7.565048   7.696377   8.025644
    40  H    5.809923   7.058140   7.208791   7.654912   7.651086
    41  H    4.760606   6.373863   6.724891   7.154556   7.086315
                   16         17         18         19         20
    16  F    0.000000
    17  F    2.195832   0.000000
    18  F    2.182224   2.186771   0.000000
    19  C    2.828110   3.888084   4.229203   0.000000
    20  F    4.111216   4.993878   5.552580   1.354123   0.000000
    21  F    2.322705   3.831146   4.264731   1.348551   2.170943
    22  F    3.194244   4.554121   4.218710   1.357965   2.169852
    23  C    4.692667   3.058485   4.630066   4.515443   4.989634
    24  O    4.298428   2.783990   3.816443   4.269014   4.949859
    25  N    5.988667   4.164607   5.774445   5.839257   6.189416
    26  C    6.836835   4.950450   6.182195   6.770507   7.185697
    27  F    8.115687   6.228224   7.543376   7.865213   8.122203
    28  F    6.825421   5.214617   6.087242   6.413851   6.779677
    29  C    6.917053   4.871098   5.878420   7.426964   8.069860
    30  F    5.887174   3.924045   4.617574   6.676640   7.496120
    31  O    7.151520   4.974566   6.275537   7.958693   8.620856
    32  C    7.823797   5.658873   6.701005   8.979105   9.757602
    33  F    9.077448   6.918829   7.885005  10.071003  10.783595
    34  F    7.365184   5.315327   5.946768   8.741862   9.655804
    35  F    8.011610   5.862900   7.080096   9.394110  10.187445
    36  C    8.189521   6.232987   6.927573   8.590982   9.203431
    37  F    8.267161   6.524687   6.957848   8.366201   8.923194
    38  F    8.589764   6.641125   7.076199   9.338811  10.086658
    39  F    9.274518   7.260038   8.161191   9.528030  10.017169
    40  H    8.170032   6.499089   8.608937   8.129372   8.180433
    41  H    7.335201   6.027662   8.197330   7.186887   7.150635
                   21         22         23         24         25
    21  F    0.000000
    22  F    2.172540   0.000000
    23  C    5.120277   5.392077   0.000000
    24  O    4.996709   4.872582   1.224521   0.000000
    25  N    6.436668   6.728492   1.371180   2.259508   0.000000
    26  C    7.491632   7.462694   2.422984   2.691791   1.459902
    27  F    8.610891   8.608615   3.528235   3.981308   2.295094
    28  F    7.331996   6.922656   2.702527   2.535450   2.287518
    29  C    8.019480   8.018139   3.230968   3.181791   2.549672
    30  F    7.224768   7.136252   3.061552   2.587633   2.983065
    31  O    8.348540   8.692186   3.687536   3.948292   2.888551
    32  C    9.287605   9.628194   4.940404   5.026034   4.271812
    33  F   10.471175  10.694541   5.862959   5.953627   4.997015
    34  F    9.047973   9.230029   5.126420   4.902395   4.766659
    35  F    9.523475  10.138011   5.512693   5.758377   4.893071
    36  C    9.299394   9.044398   4.550485   4.336944   3.810841
    37  F    9.230486   8.671818   4.721106   4.291028   4.177429
    38  F    9.966975   9.700443   5.510557   5.156097   4.913275
    39  F   10.242851  10.077370   5.255972   5.290971   4.231303
    40  H    8.269092   9.354943   4.692244   5.872141   3.904599
    41  H    7.141382   8.497735   4.699491   5.892226   4.399893
                   26         27         28         29         30
    26  C    0.000000
    27  F    1.364411   0.000000
    28  F    1.364346   2.138443   0.000000
    29  C    1.552482   2.393157   2.397560   0.000000
    30  F    2.380253   3.559388   2.770667   1.365484   0.000000
    31  O    2.440363   2.963420   3.629125   1.431696   2.220944
    32  C    3.713988   4.151310   4.759151   2.368507   2.818456
    33  F    4.160185   4.225120   5.135742   2.900074   3.664069
    34  F    4.157478   4.874785   4.925115   2.641716   2.459096
    35  F    4.667645   5.061695   5.834266   3.511534   3.846307
    36  C    2.455018   2.729929   2.803782   1.535346   2.376907
    37  F    2.772674   3.092166   2.420770   2.406877   2.856440
    38  F    3.680154   4.038233   4.015557   2.391346   2.765087
    39  F    2.895285   2.486068   3.419404   2.394214   3.563939
    40  H    4.875809   4.688867   5.976724   5.564271   6.291845
    41  H    5.687563   5.811646   6.611227   6.448695   6.873919
                   31         32         33         34         35
    31  O    0.000000
    32  C    1.403335   0.000000
    33  F    2.240084   1.342065   0.000000
    34  F    2.262951   1.341504   2.202190   0.000000
    35  F    2.230296   1.345311   2.185700   2.184901   0.000000
    36  C    2.538047   2.911584   2.773970   3.057475   4.232329
    37  F    3.704716   4.195368   4.098061   4.118768   5.520832
    38  F    3.013646   2.730989   2.433256   2.480971   4.041564
    39  F    2.941553   3.300969   2.708107   3.862090   4.482130
    40  H    4.854043   5.911246   6.468616   6.949271   5.705583
    41  H    5.848676   6.940054   7.726101   7.778775   6.679096
                   36         37         38         39         40
    36  C    0.000000
    37  F    1.350704   0.000000
    38  F    1.354968   2.162870   0.000000
    39  F    1.351751   2.178101   2.170718   0.000000
    40  H    6.714371   7.497283   7.660319   6.507445   0.000000
    41  H    7.775819   8.439308   8.718217   7.803889   1.763692
                   41
    41  H    0.000000
 Symmetry turned off by external request.
 Stoichiometry    C12H2F18IN3O5
 Framework group  C1[X(C12H2F18IN3O5)]
 Deg. of freedom   117
 Full point group                 C1      NOp   1
 Rotational constants (GHZ):      0.0952581      0.0637222      0.0476788
 Leave Link  202 at Sun Mar  3 18:02:07 2024, MaxMem=  5368709120 cpu:         0.1
 (Enter /home/k0335/k033513/app/g09/l301.exe)
 Standard basis: 6-31G(d,p) (6D, 7F)
 Atomic number out of range for 6-31G basis set.
 Error termination via Lnk1e in /home/k0335/k033513/app/g09/l301.exe at Sun Mar  3 18:02:07 2024.
 Job cpu time:       0 days  0 hours  0 minutes  3.8 seconds.
 File lengths (MBytes):  RWF=      5 Int=      0 D2E=      0 Chk=      1 Scr=      1
