 Entering Gaussian System, Link 0=g09
 Initial command:
 /home/k0335/k033513/app/g09/l1.exe "/home/k0335/k033513/app/g09/scratch/Gau-554446.inp" -scrdir="/home/k0335/k033513/app/g09/scratch/"
 Default is to use a total of  36 processors:
                               36 via shared-memory
                                1 via Linda
 Entering Link 1 = /home/k0335/k033513/app/g09/l1.exe PID=    554447.
  
 Copyright (c) 1988,1990,1992,1993,1995,1998,2003,2009,2013,
            Gaussian, Inc.  All Rights Reserved.
  
 This is part of the Gaussian(R) 09 program.  It is based on
 the Gaussian(R) 03 system (copyright 2003, Gaussian, Inc.),
 the Gaussian(R) 98 system (copyright 1998, Gaussian, Inc.),
 the Gaussian(R) 94 system (copyright 1995, Gaussian, Inc.),
 the Gaussian 92(TM) system (copyright 1992, Gaussian, Inc.),
 the Gaussian 90(TM) system (copyright 1990, Gaussian, Inc.),
 the Gaussian 88(TM) system (copyright 1988, Gaussian, Inc.),
 the Gaussian 86(TM) system (copyright 1986, Carnegie Mellon
 University), and the Gaussian 82(TM) system (copyright 1983,
 Carnegie Mellon University). Gaussian is a federally registered
 trademark of Gaussian, Inc.
  
 This software contains proprietary and confidential information,
 including trade secrets, belonging to Gaussian, Inc.
  
 This software is provided under written license and may be
 used, copied, transmitted, or stored only in accord with that
 written license.
  
 The following legend is applicable only to US Government
 contracts under FAR:
  
                    RESTRICTED RIGHTS LEGEND
  
 Use, reproduction and disclosure by the US Government is
 subject to restrictions as set forth in subparagraphs (a)
 and (c) of the Commercial Computer Software - Restricted
 Rights clause in FAR 52.227-19.
  
 Gaussian, Inc.
 340 Quinnipiac St., Bldg. 40, Wallingford CT 06492
  
  
 ---------------------------------------------------------------
 Warning -- This program may not be used in any manner that
 competes with the business of Gaussian, Inc. or will provide
 assistance to any competitor of Gaussian, Inc.  The licensee
 of this program is prohibited from giving any competitor of
 Gaussian, Inc. access to this program.  By using this program,
 the user acknowledges that Gaussian, Inc. is engaged in the
 business of creating and licensing software in the field of
 computational chemistry and represents and warrants to the
 licensee that it is not a competitor of Gaussian, Inc. and that
 it will not use this program in any manner prohibited above.
 ---------------------------------------------------------------
  

 Cite this work as:
 Gaussian 09, Revision D.01,
 M. J. Frisch, G. W. Trucks, H. B. Schlegel, G. E. Scuseria, 
 M. A. Robb, J. R. Cheeseman, G. Scalmani, V. Barone, B. Mennucci, 
 G. A. Petersson, H. Nakatsuji, M. Caricato, X. Li, H. P. Hratchian, 
 A. F. Izmaylov, J. Bloino, G. Zheng, J. L. Sonnenberg, M. Hada, 
 M. Ehara, K. Toyota, R. Fukuda, J. Hasegawa, M. Ishida, T. Nakajima, 
 Y. Honda, O. Kitao, H. Nakai, T. Vreven, J. A. Montgomery, Jr., 
 J. E. Peralta, F. Ogliaro, M. Bearpark, J. J. Heyd, E. Brothers, 
 K. N. Kudin, V. N. Staroverov, T. Keith, R. Kobayashi, J. Normand, 
 K. Raghavachari, A. Rendell, J. C. Burant, S. S. Iyengar, J. Tomasi, 
 M. Cossi, N. Rega, J. M. Millam, M. Klene, J. E. Knox, J. B. Cross, 
 V. Bakken, C. Adamo, J. Jaramillo, R. Gomperts, R. E. Stratmann, 
 O. Yazyev, A. J. Austin, R. Cammi, C. Pomelli, J. W. Ochterski, 
 R. L. Martin, K. Morokuma, V. G. Zakrzewski, G. A. Voth, 
 P. Salvador, J. J. Dannenberg, S. Dapprich, A. D. Daniels, 
 O. Farkas, J. B. Foresman, J. V. Ortiz, J. Cioslowski, 
 and D. J. Fox, Gaussian, Inc., Wallingford CT, 2013.
 
 ******************************************
 Gaussian 09:  ES64L-G09RevD.01 24-Apr-2013
                 3-Mar-2024 
 ******************************************
 %nprocshared=24
 Will use up to   24 processors via shared memory.
 %mem=40GB
 %rwf=A591161042/A591161042_0.rwf
 %nosave
 %chk=A591161042/A591161042_0.chk
 ----------------------------------------------------------------------
 #p CAM-B3LYP/6-31G(d,p) SCRF=(PCM,Solvent=Generic,Read) NoSymm out=wfn
 ----------------------------------------------------------------------
 1/38=1,40=2/1;
 2/12=2,15=1,17=6,18=5,40=1/2;
 3/5=1,6=6,7=101,11=2,16=1,25=1,30=1,70=2203,72=-2,74=-40/1,2,3;
 4//1;
 5/5=2,38=5/2;
 6/7=2,8=2,9=2,10=2,28=1/1;
 99/5=1,6=100,9=1/99;
 Leave Link    1 at Sun Mar  3 18:06:18 2024, MaxMem=  5368709120 cpu:         0.8
 (Enter /home/k0335/k033513/app/g09/l101.exe)
 ------------------
 Title A591161042_0
 ------------------
 Symbolic Z-matrix:
 Charge =  0 Multiplicity = 1
 O                    -1.87689   2.51673   1.28775 
 C                    -0.92787   1.86148   0.87141 
 N                     0.13216   2.52591   0.34356 
 C                     0.93246   1.90094  -0.64539 
 N                     1.1741    0.53626  -0.3201 
 C                     2.18517  -0.14524  -1.1215 
 F                     1.59268  -0.62616  -2.24657 
 F                     3.03395   0.81772  -1.5862 
 C                     3.01672  -1.25297  -0.40647 
 F                     2.29961  -2.42468  -0.40155 
 O                     3.24389  -1.00939   0.99092 
 C                     4.22149  -0.04215   1.26111 
 F                     4.14939   0.29183   2.56153 
 F                     4.00744   1.05875   0.52597 
 F                     5.43957  -0.53886   1.00464 
 C                     4.25022  -1.51157  -1.27783 
 F                     3.92067  -1.8792   -2.53642 
 F                     5.05297  -0.42827  -1.38173 
 F                     5.00993  -2.50736  -0.75912 
 C                     0.12236  -0.20083   0.17422 
 O                     0.05623  -1.41044  -0.01003 
 N                    -0.83834   0.49434   0.87859 
 C                    -1.98121  -0.25485   1.37942 
 F                    -1.54     -1.42464   1.92344 
 F                    -2.52307   0.40062   2.4471 
 C                    -3.07755  -0.52537   0.32111 
 F                    -2.55609  -1.29301  -0.681 
 O                    -3.44823   0.71032  -0.30503 
 C                    -4.59537   0.60467  -1.10455 
 F                    -5.68574   0.59008  -0.32218 
 F                    -4.6533    1.68315  -1.90841 
 F                    -4.55465  -0.4981   -1.86762 
 C                    -4.17834  -1.29973   1.05896 
 F                    -5.14467  -1.7194    0.20523 
 F                    -3.72199  -2.40905   1.67918 
 F                    -4.7938   -0.53849   1.99146 
 H                    -0.02102   3.52589   0.28021 
 H                     1.86815   2.46444  -0.69772 
 H                     0.40897   1.95659  -1.60642 
 
 NAtoms=     39 NQM=       39 NQMF=       0 NMMI=      0 NMMIF=      0
                NMic=       0 NMicF=      0.
                    Isotopes and Nuclear Properties:
 (Nuclear quadrupole moments (NQMom) in fm**2, nuclear magnetic moments (NMagM)
  in nuclear magnetons)

  Atom         1           2           3           4           5           6           7           8           9          10
 IAtWgt=          16          12          14          12          14          12          19          19          12          19
 AtmWgt=  15.9949146  12.0000000  14.0030740  12.0000000  14.0030740  12.0000000  18.9984033  18.9984033  12.0000000  18.9984033
 NucSpn=           0           0           2           0           2           0           1           1           0           1
 AtZEff=   0.0000000   0.0000000   0.0000000   0.0000000   0.0000000   0.0000000   0.0000000   0.0000000   0.0000000   0.0000000
 NQMom=    0.0000000   0.0000000   2.0440000   0.0000000   2.0440000   0.0000000   0.0000000   0.0000000   0.0000000   0.0000000
 NMagM=    0.0000000   0.0000000   0.4037610   0.0000000   0.4037610   0.0000000   2.6288670   2.6288670   0.0000000   2.6288670
 AtZNuc=   8.0000000   6.0000000   7.0000000   6.0000000   7.0000000   6.0000000   9.0000000   9.0000000   6.0000000   9.0000000

  Atom        11          12          13          14          15          16          17          18          19          20
 IAtWgt=          16          12          19          19          19          12          19          19          19          12
 AtmWgt=  15.9949146  12.0000000  18.9984033  18.9984033  18.9984033  12.0000000  18.9984033  18.9984033  18.9984033  12.0000000
 NucSpn=           0           0           1           1           1           0           1           1           1           0
 AtZEff=   0.0000000   0.0000000   0.0000000   0.0000000   0.0000000   0.0000000   0.0000000   0.0000000   0.0000000   0.0000000
 NQMom=    0.0000000   0.0000000   0.0000000   0.0000000   0.0000000   0.0000000   0.0000000   0.0000000   0.0000000   0.0000000
 NMagM=    0.0000000   0.0000000   2.6288670   2.6288670   2.6288670   0.0000000   2.6288670   2.6288670   2.6288670   0.0000000
 AtZNuc=   8.0000000   6.0000000   9.0000000   9.0000000   9.0000000   6.0000000   9.0000000   9.0000000   9.0000000   6.0000000

  Atom        21          22          23          24          25          26          27          28          29          30
 IAtWgt=          16          14          12          19          19          12          19          16          12          19
 AtmWgt=  15.9949146  14.0030740  12.0000000  18.9984033  18.9984033  12.0000000  18.9984033  15.9949146  12.0000000  18.9984033
 NucSpn=           0           2           0           1           1           0           1           0           0           1
 AtZEff=   0.0000000   0.0000000   0.0000000   0.0000000   0.0000000   0.0000000   0.0000000   0.0000000   0.0000000   0.0000000
 NQMom=    0.0000000   2.0440000   0.0000000   0.0000000   0.0000000   0.0000000   0.0000000   0.0000000   0.0000000   0.0000000
 NMagM=    0.0000000   0.4037610   0.0000000   2.6288670   2.6288670   0.0000000   2.6288670   0.0000000   0.0000000   2.6288670
 AtZNuc=   8.0000000   7.0000000   6.0000000   9.0000000   9.0000000   6.0000000   9.0000000   8.0000000   6.0000000   9.0000000

  Atom        31          32          33          34          35          36          37          38          39
 IAtWgt=          19          19          12          19          19          19           1           1           1
 AtmWgt=  18.9984033  18.9984033  12.0000000  18.9984033  18.9984033  18.9984033   1.0078250   1.0078250   1.0078250
 NucSpn=           1           1           0           1           1           1           1           1           1
 AtZEff=   0.0000000   0.0000000   0.0000000   0.0000000   0.0000000   0.0000000   0.0000000   0.0000000   0.0000000
 NQMom=    0.0000000   0.0000000   0.0000000   0.0000000   0.0000000   0.0000000   0.0000000   0.0000000   0.0000000
 NMagM=    2.6288670   2.6288670   0.0000000   2.6288670   2.6288670   2.6288670   2.7928460   2.7928460   2.7928460
 AtZNuc=   9.0000000   9.0000000   6.0000000   9.0000000   9.0000000   9.0000000   1.0000000   1.0000000   1.0000000
 Leave Link  101 at Sun Mar  3 18:06:18 2024, MaxMem=  5368709120 cpu:         1.1
 (Enter /home/k0335/k033513/app/g09/l202.exe)
                          Input orientation:                          
 ---------------------------------------------------------------------
 Center     Atomic      Atomic             Coordinates (Angstroms)
 Number     Number       Type             X           Y           Z
 ---------------------------------------------------------------------
      1          8           0       -1.876892    2.516734    1.287754
      2          6           0       -0.927869    1.861482    0.871409
      3          7           0        0.132161    2.525908    0.343558
      4          6           0        0.932460    1.900938   -0.645385
      5          7           0        1.174102    0.536263   -0.320097
      6          6           0        2.185173   -0.145238   -1.121497
      7          9           0        1.592676   -0.626160   -2.246568
      8          9           0        3.033946    0.817724   -1.586199
      9          6           0        3.016722   -1.252966   -0.406471
     10          9           0        2.299609   -2.424677   -0.401549
     11          8           0        3.243885   -1.009386    0.990917
     12          6           0        4.221491   -0.042148    1.261109
     13          9           0        4.149393    0.291825    2.561533
     14          9           0        4.007442    1.058745    0.525965
     15          9           0        5.439567   -0.538859    1.004638
     16          6           0        4.250222   -1.511566   -1.277828
     17          9           0        3.920665   -1.879196   -2.536417
     18          9           0        5.052965   -0.428269   -1.381726
     19          9           0        5.009931   -2.507357   -0.759116
     20          6           0        0.122355   -0.200825    0.174223
     21          8           0        0.056232   -1.410437   -0.010027
     22          7           0       -0.838342    0.494344    0.878591
     23          6           0       -1.981208   -0.254852    1.379420
     24          9           0       -1.539996   -1.424639    1.923444
     25          9           0       -2.523068    0.400624    2.447098
     26          6           0       -3.077553   -0.525374    0.321106
     27          9           0       -2.556088   -1.293006   -0.681000
     28          8           0       -3.448234    0.710317   -0.305028
     29          6           0       -4.595365    0.604671   -1.104545
     30          9           0       -5.685739    0.590077   -0.322183
     31          9           0       -4.653298    1.683154   -1.908409
     32          9           0       -4.554652   -0.498098   -1.867617
     33          6           0       -4.178337   -1.299734    1.058961
     34          9           0       -5.144673   -1.719400    0.205227
     35          9           0       -3.721989   -2.409052    1.679182
     36          9           0       -4.793795   -0.538485    1.991455
     37          1           0       -0.021020    3.525891    0.280205
     38          1           0        1.868151    2.464436   -0.697717
     39          1           0        0.408972    1.956590   -1.606415
 ---------------------------------------------------------------------
                    Distance matrix (angstroms):
                    1          2          3          4          5
     1  O    0.000000
     2  C    1.226109   0.000000
     3  N    2.219884   1.357848   0.000000
     4  C    3.465356   2.400634   1.417418   0.000000
     5  N    3.976935   2.755753   2.341958   1.423566   0.000000
     6  C    5.421343   4.205904   3.673726   2.445978   1.459092
     7  F    5.865758   4.718399   4.333289   3.063641   2.288607
     8  F    5.938230   4.777577   3.881006   2.544548   2.267433
     9  C    6.405349   5.185804   4.812808   3.787920   2.569834
    10  F    6.686886   5.514363   5.455392   4.543071   3.168685
    11  O    6.224467   5.065540   4.753967   4.060807   2.896859
    12  C    6.613536   5.503779   4.915224   4.269429   3.481573
    13  F    6.548957   5.576642   5.103792   4.818944   4.149204
    14  F    6.109946   5.012087   4.147727   3.396596   3.002769
    15  F    7.933938   6.806146   6.164283   5.384162   4.594018
    16  C    7.768587   6.542882   5.990702   4.801324   3.817508
    17  F    8.219498   7.008155   6.484748   5.176368   4.276696
    18  F    7.988873   6.788958   5.993169   4.790195   4.135572
    19  F    8.766955   7.550022   7.095230   6.005978   4.916294
    20  C    3.552755   2.417054   2.732004   2.396964   1.376162
    21  O    4.565509   3.528575   3.952923   3.483771   2.266146
    22  N    2.309992   1.370085   2.314171   2.727040   2.342764
    23  C    2.775063   2.417947   3.643071   4.151714   3.670177
    24  F    4.006497   3.504293   4.571539   4.875591   4.030501
    25  F    2.497908   2.676109   3.998994   4.873917   4.620047
    26  C    3.410340   3.258996   4.428667   4.785530   4.428858
    27  F    4.341822   3.874515   4.781266   4.729959   4.170227
    28  O    2.875624   3.010220   4.066480   4.552351   4.625636
    29  C    4.095018   4.351379   5.304494   5.696313   5.822954
    30  F    4.561932   5.067392   6.167545   6.754508   6.860052
    31  F    4.314944   4.651667   5.355577   5.730912   6.147901
    32  F    5.120154   5.120882   6.000010   6.112088   6.023566
    33  C    4.462558   4.538062   5.807558   6.266526   5.824199
    34  F    5.458488   5.572069   6.773976   7.124741   6.729851
    35  F    5.274558   5.166920   6.402515   6.755999   6.053404
    36  F    4.282275   4.686121   6.030847   6.759712   6.489542
    37  H    2.340473   1.985486   1.013629   2.099122   3.275142
    38  H    4.239125   3.262428   2.025264   1.093520   2.083783
    39  H    3.730302   2.817055   2.050157   1.095772   2.063339
                    6          7          8          9         10
     6  C    0.000000
     7  F    1.359457   0.000000
     8  F    1.365159   2.144329   0.000000
     9  C    1.558781   2.409720   2.383236   0.000000
    10  F    2.393170   2.671800   3.529279   1.373747   0.000000
    11  O    2.515932   3.654403   3.166059   1.436533   2.198560
    12  C    3.135926   4.422164   3.202625   2.387126   3.483462
    13  F    4.196891   5.522439   4.327178   3.532474   4.425035
    14  F    2.735758   4.044371   2.338166   2.682344   3.988885
    15  F    3.907233   5.037513   3.786788   2.893329   3.923392
    16  C    2.481072   2.963942   2.645754   1.532207   2.325194
    17  F    2.832056   2.659632   2.993754   2.397070   2.735513
    18  F    2.893451   3.572214   2.381333   2.403650   3.539401
    19  F    3.700025   4.174811   3.955344   2.381331   2.735057
    20  C    2.436637   2.864085   3.551604   3.133938   3.165038
    21  O    2.714495   2.824512   4.039282   2.991064   2.492933
    22  N    3.681176   4.114851   4.601563   4.423347   4.472827
    23  C    4.860590   5.104734   5.924279   5.400458   5.119120
    24  F    4.978495   5.276382   6.186011   5.120708   4.598721
    25  F    5.932990   6.326463   6.879089   6.447208   6.273383
    26  C    5.470091   5.330492   6.541571   6.180530   5.748344
    27  F    4.898057   4.484187   6.043430   5.579712   4.993653
    28  O    5.756203   5.564757   6.608449   6.757250   6.547916
    29  C    6.821902   6.411787   7.647468   7.866511   7.563849
    30  F    7.945492   7.626127   8.813766   8.895883   8.535855
    31  F    7.122284   6.667794   7.742513   8.349001   8.215097
    32  F    6.790173   6.160328   7.706971   7.747934   7.269247
    33  C    6.825065   6.684670   7.968533   7.342925   6.735159
    34  F    7.613463   7.252472   8.748486   8.197567   7.502195
    35  F    6.918325   6.843675   8.168075   7.148196   6.370975
    36  F    7.651870   7.665216   8.712775   8.201506   7.720140
    37  H    4.506578   5.121340   4.488925   5.704110   6.423345
    38  H    2.662798   3.467940   2.204572   3.901681   4.917042
    39  H    2.794229   2.912310   2.861453   4.305981   4.921556
                   11         12         13         14         15
    11  O    0.000000
    12  C    1.401523   0.000000
    13  F    2.231576   1.344559   0.000000
    14  F    2.253079   1.340977   2.179875   0.000000
    15  F    2.245574   1.340227   2.185980   2.198283   0.000000
    16  C    2.532213   2.933635   4.243003   3.149462   2.751427
    17  F    3.695495   4.229237   5.545696   4.244669   4.079539
    18  F    3.039721   2.797323   4.109047   2.635074   2.420005
    19  F    2.902663   3.283322   4.427489   3.920906   2.677760
    20  C    3.326366   4.243750   4.707333   4.099285   5.392272
    21  O    3.365095   4.564798   5.124898   4.690011   5.547025
    22  N    4.351827   5.102554   5.267904   4.891269   6.363610
    23  C    5.293567   6.207473   6.267417   6.190141   7.435659
    24  F    4.891580   5.961938   5.976835   6.236522   7.095288
    25  F    6.112801   6.862339   6.674329   6.838965   8.146587
    26  C    6.375225   7.375172   7.610261   7.262820   8.544515
    27  F    6.042800   7.160448   7.615063   7.075834   8.206133
    28  O    7.030029   7.864075   8.131190   7.509930   9.070208
    29  C    8.273450   9.151592   9.487296   8.767727  10.317760
    30  F    9.166281  10.052847  10.253516   9.741497  11.260878
    31  F    8.832970   9.580417   9.970133   9.018009  10.737277
    32  F    8.321647   9.328317   9.798048   9.025655  10.398842
    33  C    7.428211   8.495852   8.610567   8.535425   9.648107
    34  F    8.455137   9.573562   9.796778   9.569857  10.679835
    35  F    7.138359   8.299150   8.368508   8.549832   9.374793
    36  F    8.113392   9.058429   8.999723   9.064247  10.280832
    37  H    5.633245   5.629563   5.749433   4.730297   6.845802
    38  H    4.100191   3.957041   4.532881   2.837240   4.967173
    39  H    4.855912   5.172325   5.842429   4.278102   6.192879
                   16         17         18         19         20
    16  C    0.000000
    17  F    1.351964   0.000000
    18  F    1.352303   2.172695   0.000000
    19  F    1.355662   2.177128   2.170738   0.000000
    20  C    4.567908   4.958998   5.175290   5.484488   0.000000
    21  O    4.382590   4.640714   5.273856   5.128694   1.225350
    22  N    5.879396   6.320136   6.377127   6.774555   1.379251
    23  C    6.889921   7.266662   7.558677   7.650042   2.424953
    24  F    6.616821   7.065112   7.442045   7.160304   2.705717
    25  F    7.962977   8.459001   8.528964   8.688051   3.539204
    26  C    7.564751   7.679409   8.307490   8.396579   3.219677
    27  F    6.835922   6.762730   7.690024   7.663250   3.016343
    28  O    8.071513   8.123137   8.644423   9.060915   3.716042
    29  C    9.096862   8.985690   9.707423  10.102760   4.953883
    30  F   10.200661  10.162831  10.838793  11.143714   5.882678
    31  F    9.480324   9.305782   9.947213  10.595247   5.540180
    32  F    8.882611   8.613113   9.620149   9.836013   5.111935
    33  C    8.749061   8.880110   9.588188   9.443941   4.526181
    34  F    9.513501   9.472196  10.400830  10.230680   5.481662
    35  F    8.550178   8.744266   9.502235   9.066498   4.681896
    36  F    9.665885   9.911657  10.409091  10.370879   5.252131
    37  H    6.785790   7.258458   6.643999   7.924061   3.730979
    38  H    4.671122   5.144003   4.356449   5.881605   3.303286
    39  H    5.185680   5.283005   5.225391   6.466341   2.811985
                   21         22         23         24         25
    21  O    0.000000
    22  N    2.284315   0.000000
    23  C    2.723436   1.455427   0.000000
    24  F    2.507281   2.294893   1.363463   0.000000
    25  F    3.996272   2.303758   1.364990   2.138277   0.000000
    26  C    3.273163   2.522832   1.547638   2.395881   2.384275
    27  F    2.699669   2.928753   2.377726   2.798732   3.557312
    28  O    4.106812   2.873871   2.433327   3.628429   2.919938
    29  C    5.186134   4.249732   3.707112   4.756269   4.117064
    30  F    6.088491   4.994825   4.163281   5.127290   4.208004
    31  F    5.945909   4.871809   4.658943   5.833877   5.015297
    32  F    5.054033   4.726263   4.150305   4.931407   4.853020
    33  C    4.368817   3.795631   2.453945   2.779168   2.749192
    34  F    5.214519   4.888616   3.678470   4.004104   4.048864
    35  F    4.257419   4.169661   2.785813   2.406206   3.149823
    36  F    5.318740   4.236840   2.892349   3.372996   2.499147
    37  H    4.945456   3.196304   4.398253   5.432796   4.552248
    38  H    4.332506   3.700151   5.150397   5.797487   5.782040
    39  H    3.742960   3.141530   4.417991   5.262232   5.239166
                   26         27         28         29         30
    26  C    0.000000
    27  F    1.365797   0.000000
    28  O    1.434009   2.224990   0.000000
    29  C    2.369227   2.817662   1.402247   0.000000
    30  F    2.908726   3.670077   2.240799   1.342095   0.000000
    31  F    3.511596   3.842180   2.229220   1.346358   2.185604
    32  F    2.640658   2.456460   2.264092   1.341654   2.202691
    33  C    1.534858   2.378908   2.536498   2.912289   2.784099
    34  F    2.390002   2.769112   3.006957   2.723701   2.429938
    35  F    2.409961   2.859256   3.707087   4.194574   4.105673
    36  F    2.394937   3.566322   2.940047   3.306266   2.724360
    37  H    5.075117   5.529218   4.473897   5.601401   6.408659
    38  H    5.868301   5.804528   5.612048   6.738047   7.792015
    39  H    4.693755   4.495314   4.257328   5.207970   6.376685
                   31         32         33         34         35
    31  F    0.000000
    32  F    2.183862   0.000000
    33  C    4.234205   3.057629   0.000000
    34  F    4.035626   2.477173   1.356019   0.000000
    35  F    5.521259   4.113983   1.350376   2.161526   0.000000
    36  F    4.490474   3.866686   1.351974   2.169859   2.178372
    37  H    5.444604   6.431131   6.416884   7.332838   7.132872
    38  H    6.678733   7.169217   7.335865   8.215807   7.787824
    39  H    5.078636   5.543580   6.225053   6.902023   6.849731
                   36         37         38         39
    36  F    0.000000
    37  H    6.498224   0.000000
    38  H    7.786572   2.377390   0.000000
    39  H    6.799916   2.491372   1.792441   0.000000
 Symmetry turned off by external request.
 Stoichiometry    C11H3F18N3O4
 Framework group  C1[X(C11H3F18N3O4)]
 Deg. of freedom   111
 Full point group                 C1      NOp   1
 Rotational constants (GHZ):      0.2390551      0.0599133      0.0593085
 Leave Link  202 at Sun Mar  3 18:06:18 2024, MaxMem=  5368709120 cpu:         0.1
 (Enter /home/k0335/k033513/app/g09/l301.exe)
 Standard basis: 6-31G(d,p) (6D, 7F)
 Ernie: Thresh=  0.10000D-02 Tol=  0.10000D-05 Strict=F.
   555 basis functions,  1029 primitive gaussians,   555 cartesian basis functions
   142 alpha electrons      142 beta electrons
       nuclear repulsion energy      5188.4936977626 Hartrees.
 IExCor=20419 DFT=T Ex+Corr=CAM-B3LYP ExCW=0 ScaHFX=  1.000000
 ScaDFX=  1.000000  1.000000  1.000000  0.810000 ScalE2=  1.000000  1.000000
 IRadAn=      0 IRanWt=     -1 IRanGd=            0 ICorTp=0 IEmpDi=  4
  HFx wShort=  0.000000 wLong=  0.330000 cFull=  0.190000 cShort=  0.000000 cLong=  0.460000
  DFx wShort=  0.000000 wLong=  0.330000 cFull=  0.190000 cShort=  0.000000 cLong=  0.460000
 NAtoms=   39 NActive=   39 NUniq=   39 SFac= 1.00D+00 NAtFMM=   60 NAOKFM=F Big=F
 Integral buffers will be    131072 words long.
 Raffenetti 2 integral format.
 Two-electron integral symmetry is turned off.
 Using the following non-standard input for PCM:
 eps=4.9
 --- end of non-standard input.
 ------------------------------------------------------------------------------
 Polarizable Continuum Model (PCM)
 =================================
 Model                : PCM (using non-symmetric T matrix).
 Atomic radii         : UFF (Universal Force Field).
 Polarization charges : Total charges.
 Charge compensation  : None.
 Solution method      : On-the-fly selection.
 Cavity type          : Scaled VdW (van der Waals Surface) (Alpha=1.100).
 Cavity algorithm     : GePol (No added spheres)
                        Default sphere list used, NSphG=   39.
                        Lebedev-Laikov grids with approx.  5.0 points / Ang**2.
                        Smoothing algorithm: Karplus/York (Gamma=1.0000).
                        Polarization charges: spherical gaussians, with
                                              point-specific exponents (IZeta= 3).
                        Self-potential: point-specific (ISelfS= 7).
                        Self-field    : sphere-specific E.n sum rule (ISelfD= 2).
 Solvent              : Generic,
                        Eps                           =   4.900000
                        Eps(infinity)                 =   0.000000
                        RSolv                         =   0.000000 Ang.
                        Molar volume                  =   0.000000 cm**3/mol
                        Thermal expansion coefficient =   0.000000 K**-1
                        Absolute temperature          = 298.150000 K
                        Numeral density               =   0.000000 Ang**-3
                        Hydrogen bond acidity         =   0.000000
                        Hydrogen bond basicity        =   0.000000
                        Surface tension at interface  =   0.000000 (cal/mol)*Ang**-2
                        Carbon aromaticity            =   0.000000
                        Electronegative halogenicity  =   0.000000
 ------------------------------------------------------------------------------
 GePol: Number of generator spheres                  =      39
 GePol: Total number of spheres                      =      39
 GePol: Number of exposed spheres                    =      39 (100.00%)
 GePol: Number of points                             =    3264
 GePol: Average weight of points                     =       0.12
 GePol: Minimum weight of points                     =   0.11D-10
 GePol: Maximum weight of points                     =    0.20577
 GePol: Number of points with low weight             =     142
 GePol: Fraction of low-weight points (<1% of avg)   =       4.35%
 GePol: Cavity surface area                          =    407.599 Ang**2
 GePol: Cavity volume                                =    471.957 Ang**3
 Leave Link  301 at Sun Mar  3 18:06:18 2024, MaxMem=  5368709120 cpu:         1.0
 (Enter /home/k0335/k033513/app/g09/l302.exe)
 NPDir=0 NMtPBC=     1 NCelOv=     1 NCel=       1 NClECP=     1 NCelD=      1
         NCelK=      1 NCelE2=     1 NClLst=     1 CellRange=     0.0.
 One-electron integrals computed using PRISM.
 NBasis=   555 RedAO= T EigKep=  1.07D-03  NBF=   555
 NBsUse=   555 1.00D-06 EigRej= -1.00D+00 NBFU=   555
 Precomputing XC quadrature grid using
 IXCGrd= 4 IRadAn=           0 IRanWt=          -1 IRanGd=           0 AccXCQ= 0.00D+00.
 Generated NRdTot=       0 NPtTot=           0 NUsed=           0 NTot=          32
 NSgBfM=   542   542   542   542   542 MxSgAt=    39 MxSgA2=    39.
 Leave Link  302 at Sun Mar  3 18:06:19 2024, MaxMem=  5368709120 cpu:        11.4
 (Enter /home/k0335/k033513/app/g09/l303.exe)
 DipDrv:  MaxL=1.
 Leave Link  303 at Sun Mar  3 18:06:19 2024, MaxMem=  5368709120 cpu:         0.9
 (Enter /home/k0335/k033513/app/g09/l401.exe)
 ExpMin= 1.61D-01 ExpMax= 7.00D+03 ExpMxC= 1.05D+03 IAcc=1 IRadAn=         1 AccDes= 0.00D+00
 Harris functional with IExCor=20419 and IRadAn=       1 diagonalized for initial guess.
 HarFok:  IExCor=20419 AccDes= 0.00D+00 IRadAn=         1 IDoV= 1 UseB2=F ITyADJ=14
 ICtDFT=  3500011 ScaDFX=  1.000000  1.000000  1.000000  1.000000
 FoFCou: FMM=F IPFlag=           0 FMFlag=      100000 FMFlg1=           0
         NFxFlg=           0 DoJE=T BraDBF=F KetDBF=T FulRan=T
         wScrn=  0.000000 ICntrl=     500 IOpCl=  0 I1Cent=   200000004 NGrid=           0
         NMat0=    1 NMatS0=      1 NMatT0=    0 NMatD0=    1 NMtDS0=    0 NMtDT0=    0
 Symmetry not used in FoFCou.
 Harris En= -2603.00531172633    
 JPrj=0 DoOrth=F DoCkMO=F.
 Leave Link  401 at Sun Mar  3 18:06:19 2024, MaxMem=  5368709120 cpu:        12.8
 (Enter /home/k0335/k033513/app/g09/l502.exe)
 Closed shell SCF:
 Using DIIS extrapolation, IDIIS=  1040.
 Two-electron integral symmetry not used.
 IVT=      959353 IEndB=      959353 NGot=  5368709120 MDV=  5368074988
 LenX=  5368074988 LenY=  5367766408
 Requested convergence on RMS density matrix=1.00D-08 within 128 cycles.
 Requested convergence on MAX density matrix=1.00D-06.
 Requested convergence on             energy=1.00D-06.
 No special actions if energy rises.
 Fock matrices will be formed incrementally for  20 cycles.

 Cycle   1  Pass 1  IDiag  1:
 FoFJK:  IHMeth= 1 ICntrl=       0 DoSepK=T KAlg= 0 I1Cent=   0 FoldK=F
 IRaf=         1 NMat=   1 IRICut=       1 DoRegI=T DoRafI=F ISym2E= 0.
 FoFCou: FMM=F IPFlag=           0 FMFlag=      100000 FMFlg1=           0
         NFxFlg=           0 DoJE=T BraDBF=F KetDBF=F FulRan=T
         wScrn=  0.000000 ICntrl=     500 IOpCl=  0 I1Cent=           0 NGrid=           0
         NMat0=    1 NMatS0=      1 NMatT0=    0 NMatD0=    1 NMtDS0=    0 NMtDT0=    0
 Symmetry not used in FoFCou.
 Inv3:  Mode=1 IEnd=    31961088.
 Iteration    1 A*A^-1 deviation from unit magnitude is 7.33D-15 for   3257.
 Iteration    1 A*A^-1 deviation from orthogonality  is 3.24D-15 for   3255   2928.
 Iteration    1 A^-1*A deviation from unit magnitude is 7.55D-15 for   3257.
 Iteration    1 A^-1*A deviation from orthogonality  is 1.05D-13 for    654    594.
 E= -2681.66547958019    
 DIIS: error= 3.83D-02 at cycle   1 NSaved=   1.
 NSaved= 1 IEnMin= 1 EnMin= -2681.66547958019     IErMin= 1 ErrMin= 3.83D-02
 ErrMax= 3.83D-02  0.00D+00 EMaxC= 1.00D-01 BMatC= 2.19D+00 BMatP= 2.19D+00
 IDIUse=3 WtCom= 6.17D-01 WtEn= 3.83D-01
 Coeff-Com:  0.100D+01
 Coeff-En:   0.100D+01
 Coeff:      0.100D+01
 Gap=     0.425 Goal=   None    Shift=    0.000
 GapD=    0.425 DampG=2.000 DampE=0.500 DampFc=1.0000 IDamp=-1.
 RMSDP=3.02D-03 MaxDP=1.15D-01              OVMax= 1.67D-01

 Cycle   2  Pass 1  IDiag  1:
 RMSU=  3.02D-03    CP:  1.00D+00
 E= -2682.09716276822     Delta-E=       -0.431683188028 Rises=F Damp=F
 DIIS: error= 1.87D-02 at cycle   2 NSaved=   2.
 NSaved= 2 IEnMin= 2 EnMin= -2682.09716276822     IErMin= 2 ErrMin= 1.87D-02
 ErrMax= 1.87D-02  0.00D+00 EMaxC= 1.00D-01 BMatC= 6.93D-01 BMatP= 2.19D+00
 IDIUse=3 WtCom= 8.13D-01 WtEn= 1.87D-01
 Coeff-Com:  0.339D+00 0.661D+00
 Coeff-En:   0.262D+00 0.738D+00
 Coeff:      0.325D+00 0.675D+00
 Gap=     0.424 Goal=   None    Shift=    0.000
 RMSDP=1.37D-03 MaxDP=9.71D-02 DE=-4.32D-01 OVMax= 1.04D-01

 Cycle   3  Pass 1  IDiag  1:
 RMSU=  8.42D-04    CP:  1.00D+00  6.42D-01
 E= -2682.41691764307     Delta-E=       -0.319754874857 Rises=F Damp=F
 DIIS: error= 8.10D-03 at cycle   3 NSaved=   3.
 NSaved= 3 IEnMin= 3 EnMin= -2682.41691764307     IErMin= 3 ErrMin= 8.10D-03
 ErrMax= 8.10D-03  0.00D+00 EMaxC= 1.00D-01 BMatC= 1.38D-01 BMatP= 6.93D-01
 IDIUse=3 WtCom= 9.19D-01 WtEn= 8.10D-02
 Coeff-Com:  0.921D-01 0.339D+00 0.569D+00
 Coeff-En:   0.000D+00 0.118D+00 0.882D+00
 Coeff:      0.846D-01 0.321D+00 0.595D+00
 Gap=     0.367 Goal=   None    Shift=    0.000
 RMSDP=6.27D-04 MaxDP=5.72D-02 DE=-3.20D-01 OVMax= 7.45D-02

 Cycle   4  Pass 1  IDiag  1:
 RMSU=  3.22D-04    CP:  1.00D+00  7.26D-01  4.36D-01
 E= -2682.49686698302     Delta-E=       -0.079949339953 Rises=F Damp=F
 DIIS: error= 3.27D-03 at cycle   4 NSaved=   4.
 NSaved= 4 IEnMin= 4 EnMin= -2682.49686698302     IErMin= 4 ErrMin= 3.27D-03
 ErrMax= 3.27D-03  0.00D+00 EMaxC= 1.00D-01 BMatC= 1.53D-02 BMatP= 1.38D-01
 IDIUse=3 WtCom= 9.67D-01 WtEn= 3.27D-02
 Coeff-Com:  0.566D-02 0.882D-01 0.311D+00 0.595D+00
 Coeff-En:   0.000D+00 0.000D+00 0.668D-01 0.933D+00
 Coeff:      0.547D-02 0.853D-01 0.303D+00 0.606D+00
 Gap=     0.361 Goal=   None    Shift=    0.000
 RMSDP=2.11D-04 MaxDP=2.18D-02 DE=-7.99D-02 OVMax= 2.40D-02

 Cycle   5  Pass 1  IDiag  1:
 RMSU=  9.18D-05    CP:  1.00D+00  7.21D-01  6.14D-01  6.43D-01
 E= -2682.50716291288     Delta-E=       -0.010295929851 Rises=F Damp=F
 DIIS: error= 8.55D-04 at cycle   5 NSaved=   5.
 NSaved= 5 IEnMin= 5 EnMin= -2682.50716291288     IErMin= 5 ErrMin= 8.55D-04
 ErrMax= 8.55D-04  0.00D+00 EMaxC= 1.00D-01 BMatC= 9.30D-04 BMatP= 1.53D-02
 IDIUse=3 WtCom= 9.91D-01 WtEn= 8.55D-03
 Coeff-Com: -0.552D-03 0.338D-01 0.148D+00 0.347D+00 0.472D+00
 Coeff-En:   0.000D+00 0.000D+00 0.000D+00 0.000D+00 0.100D+01
 Coeff:     -0.547D-03 0.335D-01 0.147D+00 0.344D+00 0.477D+00
 Gap=     0.354 Goal=   None    Shift=    0.000
 RMSDP=4.71D-05 MaxDP=4.28D-03 DE=-1.03D-02 OVMax= 5.73D-03

 Cycle   6  Pass 1  IDiag  1:
 RMSU=  2.15D-05    CP:  1.00D+00  7.24D-01  6.01D-01  6.77D-01  5.93D-01
 E= -2682.50783204672     Delta-E=       -0.000669133842 Rises=F Damp=F
 DIIS: error= 9.79D-05 at cycle   6 NSaved=   6.
 NSaved= 6 IEnMin= 6 EnMin= -2682.50783204672     IErMin= 6 ErrMin= 9.79D-05
 ErrMax= 9.79D-05  0.00D+00 EMaxC= 1.00D-01 BMatC= 1.53D-05 BMatP= 9.30D-04
 IDIUse=1 WtCom= 1.00D+00 WtEn= 0.00D+00
 Coeff-Com: -0.569D-03-0.134D-03 0.672D-02 0.260D-01 0.121D+00 0.847D+00
 Coeff:     -0.569D-03-0.134D-03 0.672D-02 0.260D-01 0.121D+00 0.847D+00
 Gap=     0.355 Goal=   None    Shift=    0.000
 RMSDP=1.01D-05 MaxDP=8.21D-04 DE=-6.69D-04 OVMax= 6.26D-04

 Cycle   7  Pass 1  IDiag  1:
 RMSU=  7.02D-06    CP:  1.00D+00  7.24D-01  6.05D-01  6.86D-01  6.53D-01
                    CP:  1.03D+00
 E= -2682.50784433175     Delta-E=       -0.000012285030 Rises=F Damp=F
 DIIS: error= 3.82D-05 at cycle   7 NSaved=   7.
 NSaved= 7 IEnMin= 7 EnMin= -2682.50784433175     IErMin= 7 ErrMin= 3.82D-05
 ErrMax= 3.82D-05  0.00D+00 EMaxC= 1.00D-01 BMatC= 3.04D-06 BMatP= 1.53D-05
 IDIUse=1 WtCom= 1.00D+00 WtEn= 0.00D+00
 Coeff-Com: -0.175D-03-0.310D-02-0.985D-02-0.190D-01 0.169D-01 0.378D+00
 Coeff-Com:  0.638D+00
 Coeff:     -0.175D-03-0.310D-02-0.985D-02-0.190D-01 0.169D-01 0.378D+00
 Coeff:      0.638D+00
 Gap=     0.355 Goal=   None    Shift=    0.000
 RMSDP=3.18D-06 MaxDP=1.91D-04 DE=-1.23D-05 OVMax= 3.10D-04

 Cycle   8  Pass 1  IDiag  1:
 RMSU=  1.98D-06    CP:  1.00D+00  7.24D-01  6.06D-01  6.86D-01  6.65D-01
                    CP:  1.10D+00  7.87D-01
 E= -2682.50784677283     Delta-E=       -0.000002441081 Rises=F Damp=F
 DIIS: error= 7.41D-06 at cycle   8 NSaved=   8.
 NSaved= 8 IEnMin= 8 EnMin= -2682.50784677283     IErMin= 8 ErrMin= 7.41D-06
 ErrMax= 7.41D-06  0.00D+00 EMaxC= 1.00D-01 BMatC= 1.87D-07 BMatP= 3.04D-06
 IDIUse=1 WtCom= 1.00D+00 WtEn= 0.00D+00
 Coeff-Com: -0.831D-05-0.110D-02-0.403D-02-0.939D-02-0.424D-02 0.450D-01
 Coeff-Com:  0.216D+00 0.757D+00
 Coeff:     -0.831D-05-0.110D-02-0.403D-02-0.939D-02-0.424D-02 0.450D-01
 Coeff:      0.216D+00 0.757D+00
 Gap=     0.355 Goal=   None    Shift=    0.000
 RMSDP=1.12D-06 MaxDP=1.05D-04 DE=-2.44D-06 OVMax= 1.14D-04

 Cycle   9  Pass 1  IDiag  1:
 RMSU=  7.22D-07    CP:  1.00D+00  7.24D-01  6.06D-01  6.86D-01  6.70D-01
                    CP:  1.11D+00  8.52D-01  1.01D+00
 E= -2682.50784694472     Delta-E=       -0.000000171894 Rises=F Damp=F
 DIIS: error= 3.47D-06 at cycle   9 NSaved=   9.
 NSaved= 9 IEnMin= 9 EnMin= -2682.50784694472     IErMin= 9 ErrMin= 3.47D-06
 ErrMax= 3.47D-06  0.00D+00 EMaxC= 1.00D-01 BMatC= 2.88D-08 BMatP= 1.87D-07
 IDIUse=1 WtCom= 1.00D+00 WtEn= 0.00D+00
 Coeff-Com:  0.166D-04-0.818D-04-0.444D-03-0.165D-02-0.353D-02-0.308D-01
 Coeff-Com:  0.142D-01 0.320D+00 0.702D+00
 Coeff:      0.166D-04-0.818D-04-0.444D-03-0.165D-02-0.353D-02-0.308D-01
 Coeff:      0.142D-01 0.320D+00 0.702D+00
 Gap=     0.355 Goal=   None    Shift=    0.000
 RMSDP=4.41D-07 MaxDP=3.26D-05 DE=-1.72D-07 OVMax= 5.92D-05

 Cycle  10  Pass 1  IDiag  1:
 RMSU=  2.50D-07    CP:  1.00D+00  7.24D-01  6.06D-01  6.86D-01  6.72D-01
                    CP:  1.12D+00  8.77D-01  1.11D+00  9.17D-01
 E= -2682.50784697218     Delta-E=       -0.000000027453 Rises=F Damp=F
 DIIS: error= 1.25D-06 at cycle  10 NSaved=  10.
 NSaved=10 IEnMin=10 EnMin= -2682.50784697218     IErMin=10 ErrMin= 1.25D-06
 ErrMax= 1.25D-06  0.00D+00 EMaxC= 1.00D-01 BMatC= 2.45D-09 BMatP= 2.88D-08
 IDIUse=1 WtCom= 1.00D+00 WtEn= 0.00D+00
 Coeff-Com:  0.686D-05 0.960D-04 0.308D-03 0.447D-03-0.589D-03-0.169D-01
 Coeff-Com: -0.183D-01 0.320D-01 0.248D+00 0.755D+00
 Coeff:      0.686D-05 0.960D-04 0.308D-03 0.447D-03-0.589D-03-0.169D-01
 Coeff:     -0.183D-01 0.320D-01 0.248D+00 0.755D+00
 Gap=     0.355 Goal=   None    Shift=    0.000
 RMSDP=1.48D-07 MaxDP=1.32D-05 DE=-2.75D-08 OVMax= 2.05D-05

 Cycle  11  Pass 1  IDiag  1:
 RMSU=  9.08D-08    CP:  1.00D+00  7.24D-01  6.06D-01  6.86D-01  6.72D-01
                    CP:  1.12D+00  8.84D-01  1.13D+00  1.02D+00  9.75D-01
 E= -2682.50784697434     Delta-E=       -0.000000002166 Rises=F Damp=F
 DIIS: error= 8.01D-07 at cycle  11 NSaved=  11.
 NSaved=11 IEnMin=11 EnMin= -2682.50784697434     IErMin=11 ErrMin= 8.01D-07
 ErrMax= 8.01D-07  0.00D+00 EMaxC= 1.00D-01 BMatC= 6.41D-10 BMatP= 2.45D-09
 IDIUse=1 WtCom= 1.00D+00 WtEn= 0.00D+00
 Coeff-Com:  0.166D-05 0.584D-04 0.210D-03 0.410D-03 0.196D-03-0.513D-02
 Coeff-Com: -0.103D-01-0.181D-01 0.478D-01 0.395D+00 0.590D+00
 Coeff:      0.166D-05 0.584D-04 0.210D-03 0.410D-03 0.196D-03-0.513D-02
 Coeff:     -0.103D-01-0.181D-01 0.478D-01 0.395D+00 0.590D+00
 Gap=     0.355 Goal=   None    Shift=    0.000
 RMSDP=5.32D-08 MaxDP=5.43D-06 DE=-2.17D-09 OVMax= 9.98D-06

 Cycle  12  Pass 1  IDiag  1:
 RMSU=  3.36D-08    CP:  1.00D+00  7.24D-01  6.06D-01  6.86D-01  6.72D-01
                    CP:  1.12D+00  8.85D-01  1.14D+00  1.03D+00  1.08D+00
                    CP:  8.38D-01
 E= -2682.50784697510     Delta-E=       -0.000000000756 Rises=F Damp=F
 DIIS: error= 1.68D-07 at cycle  12 NSaved=  12.
 NSaved=12 IEnMin=12 EnMin= -2682.50784697510     IErMin=12 ErrMin= 1.68D-07
 ErrMax= 1.68D-07  0.00D+00 EMaxC= 1.00D-01 BMatC= 4.23D-11 BMatP= 6.41D-10
 IDIUse=1 WtCom= 1.00D+00 WtEn= 0.00D+00
 Coeff-Com: -0.504D-06 0.454D-05 0.241D-04 0.669D-04 0.221D-03 0.104D-02
 Coeff-Com: -0.213D-03-0.106D-01-0.257D-01-0.315D-02 0.168D+00 0.870D+00
 Coeff:     -0.504D-06 0.454D-05 0.241D-04 0.669D-04 0.221D-03 0.104D-02
 Coeff:     -0.213D-03-0.106D-01-0.257D-01-0.315D-02 0.168D+00 0.870D+00
 Gap=     0.355 Goal=   None    Shift=    0.000
 RMSDP=2.41D-08 MaxDP=2.16D-06 DE=-7.56D-10 OVMax= 4.57D-06

 Cycle  13  Pass 1  IDiag  1:
 RMSU=  1.21D-08    CP:  1.00D+00  7.24D-01  6.06D-01  6.86D-01  6.72D-01
                    CP:  1.12D+00  8.86D-01  1.15D+00  1.04D+00  1.12D+00
                    CP:  9.76D-01  1.08D+00
 E= -2682.50784697490     Delta-E=        0.000000000201 Rises=F Damp=F
 DIIS: error= 5.04D-08 at cycle  13 NSaved=  13.
 NSaved=13 IEnMin=12 EnMin= -2682.50784697510     IErMin=13 ErrMin= 5.04D-08
 ErrMax= 5.04D-08  0.00D+00 EMaxC= 1.00D-01 BMatC= 6.68D-12 BMatP= 4.23D-11
 IDIUse=1 WtCom= 1.00D+00 WtEn= 0.00D+00
 Coeff-Com: -0.374D-06-0.448D-05-0.126D-04-0.187D-04 0.683D-04 0.896D-03
 Coeff-Com:  0.983D-03-0.242D-02-0.157D-01-0.449D-01 0.216D-02 0.342D+00
 Coeff-Com:  0.717D+00
 Coeff:     -0.374D-06-0.448D-05-0.126D-04-0.187D-04 0.683D-04 0.896D-03
 Coeff:      0.983D-03-0.242D-02-0.157D-01-0.449D-01 0.216D-02 0.342D+00
 Coeff:      0.717D+00
 Gap=     0.355 Goal=   None    Shift=    0.000
 RMSDP=8.15D-09 MaxDP=6.46D-07 DE= 2.01D-10 OVMax= 1.96D-06

 Error on total polarization charges =  0.00143
 SCF Done:  E(RCAM-B3LYP) =  -2682.50784697     A.U. after   13 cycles
            NFock= 13  Conv=0.82D-08     -V/T= 2.0072
 KE= 2.663325149604D+03 PE=-1.672289754818D+04 EE= 6.188570853841D+03
 Leave Link  502 at Sun Mar  3 18:07:04 2024, MaxMem=  5368709120 cpu:      1004.6
 (Enter /home/k0335/k033513/app/g09/l601.exe)
 Copying SCF densities to generalized density rwf, IOpCl= 0 IROHF=0.

 **********************************************************************

            Population analysis using the SCF density.

 **********************************************************************

 Alpha  occ. eigenvalues --  -24.84593 -24.83944 -24.83884 -24.83612 -24.83553
 Alpha  occ. eigenvalues --  -24.83474 -24.83459 -24.83368 -24.83130 -24.83045
 Alpha  occ. eigenvalues --  -24.82864 -24.82782 -24.82694 -24.82520 -24.82307
 Alpha  occ. eigenvalues --  -24.82280 -24.82243 -24.82240 -19.33293 -19.32933
 Alpha  occ. eigenvalues --  -19.23098 -19.21275 -14.51443 -14.49427 -14.45973
 Alpha  occ. eigenvalues --  -10.60027 -10.59524 -10.55312 -10.55183 -10.52619
 Alpha  occ. eigenvalues --  -10.52340 -10.48949 -10.48631 -10.45085 -10.43117
 Alpha  occ. eigenvalues --  -10.36381  -1.43839  -1.43173  -1.41824  -1.41549
 Alpha  occ. eigenvalues --   -1.39171  -1.38476  -1.35477  -1.34833  -1.34466
 Alpha  occ. eigenvalues --   -1.33792  -1.33507  -1.33227  -1.32694  -1.32550
 Alpha  occ. eigenvalues --   -1.32213  -1.31937  -1.31684  -1.31023  -1.20842
 Alpha  occ. eigenvalues --   -1.20646  -1.20263  -1.16043  -1.09781  -1.07578
 Alpha  occ. eigenvalues --   -1.02574  -0.93251  -0.92756  -0.85452  -0.84292
 Alpha  occ. eigenvalues --   -0.82545  -0.82058  -0.80046  -0.78407  -0.76706
 Alpha  occ. eigenvalues --   -0.75681  -0.73971  -0.73068  -0.72224  -0.71935
 Alpha  occ. eigenvalues --   -0.71161  -0.70466  -0.70289  -0.70185  -0.69150
 Alpha  occ. eigenvalues --   -0.69063  -0.68635  -0.68258  -0.67646  -0.67151
 Alpha  occ. eigenvalues --   -0.66458  -0.66197  -0.64763  -0.64157  -0.63318
 Alpha  occ. eigenvalues --   -0.61610  -0.59882  -0.59742  -0.59104  -0.58148
 Alpha  occ. eigenvalues --   -0.57799  -0.57458  -0.57203  -0.56984  -0.56414
 Alpha  occ. eigenvalues --   -0.56092  -0.56005  -0.55915  -0.55595  -0.55475
 Alpha  occ. eigenvalues --   -0.54963  -0.54751  -0.54610  -0.54197  -0.53669
 Alpha  occ. eigenvalues --   -0.53609  -0.53281  -0.53122  -0.52770  -0.52520
 Alpha  occ. eigenvalues --   -0.52133  -0.51998  -0.51690  -0.51508  -0.51113
 Alpha  occ. eigenvalues --   -0.50658  -0.50538  -0.50431  -0.50274  -0.50245
 Alpha  occ. eigenvalues --   -0.49790  -0.49641  -0.49493  -0.49323  -0.48918
 Alpha  occ. eigenvalues --   -0.48694  -0.48395  -0.48289  -0.47952  -0.45565
 Alpha  occ. eigenvalues --   -0.44327  -0.42983  -0.38791  -0.37871  -0.37054
 Alpha  occ. eigenvalues --   -0.35393  -0.33599
 Alpha virt. eigenvalues --    0.01858   0.05615   0.06274   0.07098   0.08574
 Alpha virt. eigenvalues --    0.10433   0.12944   0.14225   0.16507   0.17586
 Alpha virt. eigenvalues --    0.17904   0.17999   0.18826   0.20122   0.20327
 Alpha virt. eigenvalues --    0.20751   0.21182   0.21566   0.22491   0.22664
 Alpha virt. eigenvalues --    0.22849   0.23756   0.23857   0.24611   0.25123
 Alpha virt. eigenvalues --    0.25710   0.26077   0.26921   0.27656   0.27859
 Alpha virt. eigenvalues --    0.29491   0.29997   0.30529   0.31092   0.33344
 Alpha virt. eigenvalues --    0.34401   0.34746   0.38079   0.40742   0.43026
 Alpha virt. eigenvalues --    0.46431   0.47492   0.48227   0.48444   0.49420
 Alpha virt. eigenvalues --    0.50145   0.50909   0.51772   0.52056   0.52944
 Alpha virt. eigenvalues --    0.53624   0.54584   0.54771   0.55949   0.56673
 Alpha virt. eigenvalues --    0.56862   0.57403   0.57910   0.59744   0.60367
 Alpha virt. eigenvalues --    0.60530   0.61370   0.62347   0.63672   0.64438
 Alpha virt. eigenvalues --    0.65144   0.67723   0.69125   0.70712   0.70893
 Alpha virt. eigenvalues --    0.72107   0.73651   0.74195   0.77050   0.78248
 Alpha virt. eigenvalues --    0.80875   0.82154   0.82954   0.83761   0.85266
 Alpha virt. eigenvalues --    0.86527   0.88069   0.89121   0.89521   0.90916
 Alpha virt. eigenvalues --    0.91967   0.92214   0.93098   0.94960   0.95649
 Alpha virt. eigenvalues --    0.96646   0.97698   0.98951   0.99136   1.01015
 Alpha virt. eigenvalues --    1.02843   1.03395   1.03867   1.05474   1.05864
 Alpha virt. eigenvalues --    1.07059   1.07980   1.09136   1.09355   1.10292
 Alpha virt. eigenvalues --    1.10531   1.11968   1.12544   1.13492   1.14359
 Alpha virt. eigenvalues --    1.15180   1.16102   1.16326   1.16922   1.17814
 Alpha virt. eigenvalues --    1.18018   1.18509   1.19114   1.19775   1.21198
 Alpha virt. eigenvalues --    1.22550   1.23074   1.23931   1.24572   1.27080
 Alpha virt. eigenvalues --    1.27430   1.27488   1.28633   1.29195   1.29885
 Alpha virt. eigenvalues --    1.30871   1.31084   1.31546   1.32944   1.33306
 Alpha virt. eigenvalues --    1.34038   1.34335   1.34491   1.34745   1.35537
 Alpha virt. eigenvalues --    1.35889   1.36441   1.36693   1.37148   1.38287
 Alpha virt. eigenvalues --    1.38857   1.39491   1.39799   1.40040   1.40333
 Alpha virt. eigenvalues --    1.40963   1.41420   1.41742   1.42258   1.43125
 Alpha virt. eigenvalues --    1.43441   1.44523   1.45421   1.45658   1.46203
 Alpha virt. eigenvalues --    1.47021   1.47467   1.48715   1.49684   1.50353
 Alpha virt. eigenvalues --    1.50756   1.51161   1.52616   1.52827   1.53946
 Alpha virt. eigenvalues --    1.54701   1.55323   1.55949   1.56333   1.57807
 Alpha virt. eigenvalues --    1.59163   1.59379   1.59640   1.61425   1.62075
 Alpha virt. eigenvalues --    1.62487   1.63531   1.64387   1.66632   1.67860
 Alpha virt. eigenvalues --    1.68507   1.70104   1.70750   1.71145   1.72183
 Alpha virt. eigenvalues --    1.72675   1.74418   1.74591   1.75021   1.75566
 Alpha virt. eigenvalues --    1.76330   1.76973   1.77394   1.77613   1.79340
 Alpha virt. eigenvalues --    1.80217   1.80975   1.81796   1.82677   1.82860
 Alpha virt. eigenvalues --    1.83731   1.83917   1.84695   1.84990   1.85463
 Alpha virt. eigenvalues --    1.86367   1.86675   1.87227   1.87443   1.87944
 Alpha virt. eigenvalues --    1.88323   1.88634   1.88791   1.88986   1.89966
 Alpha virt. eigenvalues --    1.90440   1.90891   1.91755   1.92000   1.92362
 Alpha virt. eigenvalues --    1.92623   1.93603   1.93932   1.94025   1.94796
 Alpha virt. eigenvalues --    1.95206   1.96181   1.96550   1.97024   1.97174
 Alpha virt. eigenvalues --    1.98103   1.98947   1.99274   1.99980   2.00590
 Alpha virt. eigenvalues --    2.00767   2.01071   2.01640   2.02037   2.02262
 Alpha virt. eigenvalues --    2.03197   2.03741   2.03858   2.04269   2.04646
 Alpha virt. eigenvalues --    2.04700   2.05035   2.05191   2.05693   2.06587
 Alpha virt. eigenvalues --    2.07005   2.07960   2.07988   2.08769   2.09192
 Alpha virt. eigenvalues --    2.09332   2.10074   2.11228   2.11384   2.11934
 Alpha virt. eigenvalues --    2.12316   2.12992   2.13273   2.14702   2.14778
 Alpha virt. eigenvalues --    2.16884   2.17685   2.18587   2.19013   2.19684
 Alpha virt. eigenvalues --    2.20272   2.20865   2.21630   2.22404   2.23268
 Alpha virt. eigenvalues --    2.24003   2.26456   2.27813   2.28074   2.28736
 Alpha virt. eigenvalues --    2.29604   2.31179   2.32007   2.33180   2.35163
 Alpha virt. eigenvalues --    2.36880   2.37955   2.38576   2.40442   2.40774
 Alpha virt. eigenvalues --    2.41728   2.42142   2.43207   2.44845   2.45517
 Alpha virt. eigenvalues --    2.46013   2.47787   2.49680   2.50187   2.51590
 Alpha virt. eigenvalues --    2.52499   2.53381   2.55944   2.56436   2.57474
 Alpha virt. eigenvalues --    2.58380   2.59349   2.60463   2.61134   2.62387
 Alpha virt. eigenvalues --    2.64219   2.65607   2.66171   2.67496   2.68050
 Alpha virt. eigenvalues --    2.69166   2.70522   2.71296   2.73213   2.74874
 Alpha virt. eigenvalues --    2.76091   2.78201   2.79709   2.81057   2.81793
 Alpha virt. eigenvalues --    2.83573   2.84254   2.84461   2.85833   2.87067
 Alpha virt. eigenvalues --    2.88437   2.89579   2.91304   2.91698   2.92351
 Alpha virt. eigenvalues --    2.92882   2.94832   2.95217   2.96618   2.98199
 Alpha virt. eigenvalues --    2.99343   3.01126   3.03540   3.04479   3.04916
 Alpha virt. eigenvalues --    3.05882   3.06502   3.06717   3.07311   3.07891
 Alpha virt. eigenvalues --    3.08295   3.10563   3.12595   3.14561   3.16039
 Alpha virt. eigenvalues --    3.17455   3.17833   3.18879   3.21107   3.22686
 Alpha virt. eigenvalues --    3.22967   3.28423   3.28643   3.30340   3.31184
 Alpha virt. eigenvalues --    3.31620   3.34155   3.35613   3.36933   3.39872
 Alpha virt. eigenvalues --    3.51224   3.56611   4.06853   4.08146   4.16206
 Alpha virt. eigenvalues --    4.19621   4.23106   4.28308   4.32844   4.33272
 Alpha virt. eigenvalues --    4.36568   4.40046   4.43431   4.44691   4.48449
 Alpha virt. eigenvalues --    4.56160   4.59845   4.64506   4.68924   4.74156
 Alpha virt. eigenvalues --    4.76195   4.80742   4.82628   4.85636   5.04112
 Alpha virt. eigenvalues --    5.08775   5.19359   5.24825   5.31429   5.38105
 Alpha virt. eigenvalues --    5.44086   5.61022   5.65740   5.68288   6.22888
 Alpha virt. eigenvalues --    6.30526   6.37360   6.70493
          Condensed to atoms (all electrons):
               1          2          3          4          5          6
     1  O    8.088874   0.619453  -0.106026   0.002832  -0.000003   0.000002
     2  C    0.619453   4.162953   0.332768  -0.029770  -0.008261   0.000213
     3  N   -0.106026   0.332768   6.995692   0.235696  -0.028800   0.002398
     4  C    0.002832  -0.029770   0.235696   4.709879   0.228595  -0.021024
     5  N   -0.000003  -0.008261  -0.028800   0.228595   7.397748   0.205665
     6  C    0.000002   0.000213   0.002398  -0.021024   0.205665   4.418874
     7  F    0.000000  -0.000002   0.000000  -0.000346  -0.069615   0.287297
     8  F    0.000000  -0.000003   0.000369   0.003100  -0.039417   0.239548
     9  C    0.000000  -0.000017  -0.000019   0.003138  -0.051592   0.190660
    10  F    0.000000   0.000000   0.000000  -0.000045  -0.000244  -0.026893
    11  O    0.000000   0.000007  -0.000007  -0.000175  -0.001161  -0.041943
    12  C    0.000000   0.000004   0.000006  -0.000065   0.002619  -0.006679
    13  F    0.000000   0.000000   0.000000   0.000002  -0.000040  -0.000075
    14  F    0.000000   0.000000  -0.000064  -0.000015  -0.001644   0.010556
    15  F    0.000000   0.000000   0.000000   0.000000   0.000009  -0.000246
    16  C    0.000000   0.000000   0.000000  -0.000049   0.003114  -0.039625
    17  F    0.000000   0.000000   0.000000   0.000001   0.000048   0.010086
    18  F    0.000000   0.000000   0.000000   0.000012  -0.000047   0.000986
    19  F    0.000000   0.000000   0.000000   0.000000  -0.000009   0.001843
    20  C   -0.000160  -0.007732  -0.007497  -0.023697   0.244866  -0.014628
    21  O   -0.000026  -0.000196   0.000070   0.001974  -0.097783   0.011693
    22  N   -0.086849   0.173041  -0.111026   0.009198  -0.098462   0.002743
    23  C    0.015537  -0.009498   0.001783  -0.000057   0.001763  -0.000006
    24  F    0.000011   0.000408  -0.000030   0.000010   0.000012   0.000011
    25  F   -0.011135   0.005946   0.000048   0.000011  -0.000024   0.000000
    26  C   -0.003441  -0.004721  -0.000075   0.000008  -0.000281   0.000005
    27  F    0.000004  -0.000344   0.000002   0.000007  -0.000006   0.000002
    28  O   -0.000643   0.004649  -0.000314   0.000013  -0.000002   0.000000
    29  C    0.000322   0.000111  -0.000006  -0.000001   0.000000   0.000000
    30  F   -0.000001   0.000002   0.000000   0.000000   0.000000   0.000000
    31  F   -0.000002  -0.000014   0.000000   0.000000   0.000000   0.000000
    32  F    0.000000   0.000000   0.000000   0.000000   0.000000   0.000000
    33  C   -0.000008  -0.000003  -0.000001   0.000001  -0.000001   0.000000
    34  F    0.000000   0.000000   0.000000   0.000000   0.000000   0.000000
    35  F    0.000000   0.000002   0.000000   0.000000   0.000000   0.000000
    36  F   -0.000001   0.000005   0.000000   0.000000   0.000000   0.000000
    37  H    0.006145  -0.016032   0.346302  -0.024545   0.002812  -0.000043
    38  H   -0.000118   0.002463  -0.031978   0.392176  -0.028829  -0.007367
    39  H    0.000392  -0.000275  -0.065863   0.413242  -0.069898   0.004487
               7          8          9         10         11         12
     1  O    0.000000   0.000000   0.000000   0.000000   0.000000   0.000000
     2  C   -0.000002  -0.000003  -0.000017   0.000000   0.000007   0.000004
     3  N    0.000000   0.000369  -0.000019   0.000000  -0.000007   0.000006
     4  C   -0.000346   0.003100   0.003138  -0.000045  -0.000175  -0.000065
     5  N   -0.069615  -0.039417  -0.051592  -0.000244  -0.001161   0.002619
     6  C    0.287297   0.239548   0.190660  -0.026893  -0.041943  -0.006679
     7  F    9.098569  -0.041471  -0.027747   0.000234   0.000563   0.000078
     8  F   -0.041471   9.137106  -0.033361   0.000311   0.000687   0.002146
     9  C   -0.027747  -0.033361   4.962585   0.243067   0.156423  -0.003367
    10  F    0.000234   0.000311   0.243067   9.097893  -0.040757   0.000259
    11  O    0.000563   0.000687   0.156423  -0.040757   8.340805   0.242193
    12  C    0.000078   0.002146  -0.003367   0.000259   0.242193   3.841771
    13  F    0.000000  -0.000001   0.001013  -0.000002  -0.038949   0.336785
    14  F    0.000002  -0.006131   0.004890   0.000000  -0.047597   0.291614
    15  F    0.000000  -0.000009  -0.007218  -0.000003  -0.047474   0.301285
    16  C   -0.001856   0.012148   0.225649  -0.009641  -0.023847  -0.004543
    17  F    0.000011  -0.001305  -0.033611  -0.000806   0.000527   0.000065
    18  F   -0.000047  -0.003556  -0.036404   0.000309  -0.001302   0.013133
    19  F   -0.000002   0.000000  -0.025735  -0.000883  -0.000682  -0.000198
    20  C    0.009163   0.001746  -0.005655   0.003525   0.003522   0.000306
    21  O   -0.002570   0.000013   0.005847  -0.007517  -0.001072  -0.000001
    22  N    0.000021  -0.000021  -0.000226   0.000000  -0.000046  -0.000007
    23  C    0.000004   0.000000  -0.000009   0.000004   0.000001   0.000000
    24  F    0.000000   0.000000  -0.000004   0.000000   0.000000   0.000000
    25  F    0.000000   0.000000   0.000000   0.000000   0.000000   0.000000
    26  C    0.000000   0.000000   0.000000   0.000000   0.000000   0.000000
    27  F    0.000000   0.000000   0.000001   0.000000   0.000000   0.000000
    28  O    0.000000   0.000000   0.000000   0.000000   0.000000   0.000000
    29  C    0.000000   0.000000   0.000000   0.000000   0.000000   0.000000
    30  F    0.000000   0.000000   0.000000   0.000000   0.000000   0.000000
    31  F    0.000000   0.000000   0.000000   0.000000   0.000000   0.000000
    32  F    0.000000   0.000000   0.000000   0.000000   0.000000   0.000000
    33  C    0.000000   0.000000   0.000000   0.000000   0.000000   0.000000
    34  F    0.000000   0.000000   0.000000   0.000000   0.000000   0.000000
    35  F    0.000000   0.000000   0.000000   0.000000   0.000000   0.000000
    36  F    0.000000   0.000000   0.000000   0.000000   0.000000   0.000000
    37  H    0.000001   0.000003   0.000001   0.000000   0.000000   0.000000
    38  H    0.000046   0.008367   0.000270   0.000000   0.000045  -0.000045
    39  H    0.002722  -0.000780  -0.000025   0.000000  -0.000008   0.000009
              13         14         15         16         17         18
     1  O    0.000000   0.000000   0.000000   0.000000   0.000000   0.000000
     2  C    0.000000   0.000000   0.000000   0.000000   0.000000   0.000000
     3  N    0.000000  -0.000064   0.000000   0.000000   0.000000   0.000000
     4  C    0.000002  -0.000015   0.000000  -0.000049   0.000001   0.000012
     5  N   -0.000040  -0.001644   0.000009   0.003114   0.000048  -0.000047
     6  C   -0.000075   0.010556  -0.000246  -0.039625   0.010086   0.000986
     7  F    0.000000   0.000002   0.000000  -0.001856   0.000011  -0.000047
     8  F   -0.000001  -0.006131  -0.000009   0.012148  -0.001305  -0.003556
     9  C    0.001013   0.004890  -0.007218   0.225649  -0.033611  -0.036404
    10  F   -0.000002   0.000000  -0.000003  -0.009641  -0.000806   0.000309
    11  O   -0.038949  -0.047597  -0.047474  -0.023847   0.000527  -0.001302
    12  C    0.336785   0.291614   0.301285  -0.004543   0.000065   0.013133
    13  F    9.012696  -0.037071  -0.037370  -0.000071   0.000000  -0.000001
    14  F   -0.037071   9.066811  -0.033931  -0.004681   0.000000  -0.000435
    15  F   -0.037370  -0.033931   9.053167   0.017370   0.000000  -0.006757
    16  C   -0.000071  -0.004681   0.017370   4.190929   0.290185   0.251666
    17  F    0.000000   0.000000   0.000000   0.290185   9.054899  -0.037633
    18  F   -0.000001  -0.000435  -0.006757   0.251666  -0.037633   9.109571
    19  F    0.000000   0.000011  -0.000741   0.288010  -0.038180  -0.038168
    20  C   -0.000003   0.000086   0.000001   0.000253  -0.000002  -0.000001
    21  O    0.000000   0.000000   0.000000   0.000215  -0.000001   0.000000
    22  N    0.000000   0.000001   0.000000   0.000000   0.000000   0.000000
    23  C    0.000000   0.000000   0.000000   0.000000   0.000000   0.000000
    24  F    0.000000   0.000000   0.000000   0.000000   0.000000   0.000000
    25  F    0.000000   0.000000   0.000000   0.000000   0.000000   0.000000
    26  C    0.000000   0.000000   0.000000   0.000000   0.000000   0.000000
    27  F    0.000000   0.000000   0.000000   0.000000   0.000000   0.000000
    28  O    0.000000   0.000000   0.000000   0.000000   0.000000   0.000000
    29  C    0.000000   0.000000   0.000000   0.000000   0.000000   0.000000
    30  F    0.000000   0.000000   0.000000   0.000000   0.000000   0.000000
    31  F    0.000000   0.000000   0.000000   0.000000   0.000000   0.000000
    32  F    0.000000   0.000000   0.000000   0.000000   0.000000   0.000000
    33  C    0.000000   0.000000   0.000000   0.000000   0.000000   0.000000
    34  F    0.000000   0.000000   0.000000   0.000000   0.000000   0.000000
    35  F    0.000000   0.000000   0.000000   0.000000   0.000000   0.000000
    36  F    0.000000   0.000000   0.000000   0.000000   0.000000   0.000000
    37  H    0.000000  -0.000001   0.000000   0.000000   0.000000   0.000000
    38  H    0.000002   0.002519   0.000002  -0.000016   0.000000  -0.000001
    39  H    0.000000   0.000022   0.000000   0.000004   0.000000   0.000000
              19         20         21         22         23         24
     1  O    0.000000  -0.000160  -0.000026  -0.086849   0.015537   0.000011
     2  C    0.000000  -0.007732  -0.000196   0.173041  -0.009498   0.000408
     3  N    0.000000  -0.007497   0.000070  -0.111026   0.001783  -0.000030
     4  C    0.000000  -0.023697   0.001974   0.009198  -0.000057   0.000010
     5  N   -0.000009   0.244866  -0.097783  -0.098462   0.001763   0.000012
     6  C    0.001843  -0.014628   0.011693   0.002743  -0.000006   0.000011
     7  F   -0.000002   0.009163  -0.002570   0.000021   0.000004   0.000000
     8  F    0.000000   0.001746   0.000013  -0.000021   0.000000   0.000000
     9  C   -0.025735  -0.005655   0.005847  -0.000226  -0.000009  -0.000004
    10  F   -0.000883   0.003525  -0.007517   0.000000   0.000004   0.000000
    11  O   -0.000682   0.003522  -0.001072  -0.000046   0.000001   0.000000
    12  C   -0.000198   0.000306  -0.000001  -0.000007   0.000000   0.000000
    13  F    0.000000  -0.000003   0.000000   0.000000   0.000000   0.000000
    14  F    0.000011   0.000086   0.000000   0.000001   0.000000   0.000000
    15  F   -0.000741   0.000001   0.000000   0.000000   0.000000   0.000000
    16  C    0.288010   0.000253   0.000215   0.000000   0.000000   0.000000
    17  F   -0.038180  -0.000002  -0.000001   0.000000   0.000000   0.000000
    18  F   -0.038168  -0.000001   0.000000   0.000000   0.000000   0.000000
    19  F    9.071208  -0.000001   0.000000   0.000000   0.000000   0.000000
    20  C   -0.000001   4.177626   0.566161   0.207731  -0.013516   0.006511
    21  O    0.000000   0.566161   8.112287  -0.085776   0.015056  -0.010087
    22  N    0.000000   0.207731  -0.085776   7.575521   0.197060  -0.041142
    23  C    0.000000  -0.013516   0.015056   0.197060   4.359084   0.271481
    24  F    0.000000   0.006511  -0.010087  -0.041142   0.271481   9.100105
    25  F    0.000000   0.000742   0.000007  -0.037541   0.269195  -0.041820
    26  C    0.000000  -0.001130  -0.002173  -0.069273   0.208939  -0.025097
    27  F    0.000000   0.009312  -0.003037  -0.001960  -0.021106  -0.000169
    28  O    0.000000   0.000012  -0.000005  -0.000220  -0.026649   0.000547
    29  C    0.000000  -0.000003  -0.000003  -0.000203   0.001147   0.000005
    30  F    0.000000   0.000000   0.000000   0.000001  -0.000175   0.000000
    31  F    0.000000   0.000000   0.000000   0.000002  -0.000032   0.000000
    32  F    0.000000   0.000001   0.000000  -0.000003   0.000196   0.000000
    33  C    0.000000   0.000302  -0.000041   0.003388  -0.031282  -0.000307
    34  F    0.000000   0.000000   0.000000  -0.000014   0.001355  -0.000002
    35  F    0.000000  -0.000006   0.000000   0.000040   0.005040  -0.002765
    36  F    0.000000   0.000000   0.000000  -0.000024   0.000902  -0.000206
    37  H    0.000000   0.000324   0.000005   0.005493  -0.000071   0.000000
    38  H    0.000000   0.002296  -0.000100  -0.000237   0.000005   0.000000
    39  H    0.000000  -0.000920   0.000313   0.000189   0.000066   0.000000
              25         26         27         28         29         30
     1  O   -0.011135  -0.003441   0.000004  -0.000643   0.000322  -0.000001
     2  C    0.005946  -0.004721  -0.000344   0.004649   0.000111   0.000002
     3  N    0.000048  -0.000075   0.000002  -0.000314  -0.000006   0.000000
     4  C    0.000011   0.000008   0.000007   0.000013  -0.000001   0.000000
     5  N   -0.000024  -0.000281  -0.000006  -0.000002   0.000000   0.000000
     6  C    0.000000   0.000005   0.000002   0.000000   0.000000   0.000000
     7  F    0.000000   0.000000   0.000000   0.000000   0.000000   0.000000
     8  F    0.000000   0.000000   0.000000   0.000000   0.000000   0.000000
     9  C    0.000000   0.000000   0.000001   0.000000   0.000000   0.000000
    10  F    0.000000   0.000000   0.000000   0.000000   0.000000   0.000000
    11  O    0.000000   0.000000   0.000000   0.000000   0.000000   0.000000
    12  C    0.000000   0.000000   0.000000   0.000000   0.000000   0.000000
    13  F    0.000000   0.000000   0.000000   0.000000   0.000000   0.000000
    14  F    0.000000   0.000000   0.000000   0.000000   0.000000   0.000000
    15  F    0.000000   0.000000   0.000000   0.000000   0.000000   0.000000
    16  C    0.000000   0.000000   0.000000   0.000000   0.000000   0.000000
    17  F    0.000000   0.000000   0.000000   0.000000   0.000000   0.000000
    18  F    0.000000   0.000000   0.000000   0.000000   0.000000   0.000000
    19  F    0.000000   0.000000   0.000000   0.000000   0.000000   0.000000
    20  C    0.000742  -0.001130   0.009312   0.000012  -0.000003   0.000000
    21  O    0.000007  -0.002173  -0.003037  -0.000005  -0.000003   0.000000
    22  N   -0.037541  -0.069273  -0.001960  -0.000220  -0.000203   0.000001
    23  C    0.269195   0.208939  -0.021106  -0.026649   0.001147  -0.000175
    24  F   -0.041820  -0.025097  -0.000169   0.000547   0.000005   0.000000
    25  F    9.098099  -0.036136   0.000303   0.000826  -0.000054   0.000001
    26  C   -0.036136   5.005351   0.220247   0.154203   0.000992  -0.008953
    27  F    0.000303   0.220247   9.125239  -0.052754  -0.000966  -0.000015
    28  O    0.000826   0.154203  -0.052754   8.353527   0.235838  -0.047487
    29  C   -0.000054   0.000992  -0.000966   0.235838   3.822643   0.302529
    30  F    0.000001  -0.008953  -0.000015  -0.047487   0.302529   9.057829
    31  F    0.000000   0.000536  -0.000021  -0.039630   0.338556  -0.037345
    32  F    0.000000   0.012769  -0.001506  -0.046182   0.294990  -0.033776
    33  C    0.006936   0.206155  -0.014865  -0.026936  -0.003490   0.017520
    34  F    0.000000  -0.031720  -0.000048  -0.001529   0.012316  -0.006774
    35  F   -0.000705  -0.028150  -0.000268   0.000539   0.000059   0.000000
    36  F   -0.000702  -0.033198   0.000308   0.000343  -0.000384  -0.000441
    37  H    0.000006   0.000008   0.000000  -0.000001   0.000000   0.000000
    38  H    0.000000   0.000000   0.000000   0.000000   0.000000   0.000000
    39  H    0.000000   0.000015  -0.000003   0.000012   0.000003   0.000000
              31         32         33         34         35         36
     1  O   -0.000002   0.000000  -0.000008   0.000000   0.000000  -0.000001
     2  C   -0.000014   0.000000  -0.000003   0.000000   0.000002   0.000005
     3  N    0.000000   0.000000  -0.000001   0.000000   0.000000   0.000000
     4  C    0.000000   0.000000   0.000001   0.000000   0.000000   0.000000
     5  N    0.000000   0.000000  -0.000001   0.000000   0.000000   0.000000
     6  C    0.000000   0.000000   0.000000   0.000000   0.000000   0.000000
     7  F    0.000000   0.000000   0.000000   0.000000   0.000000   0.000000
     8  F    0.000000   0.000000   0.000000   0.000000   0.000000   0.000000
     9  C    0.000000   0.000000   0.000000   0.000000   0.000000   0.000000
    10  F    0.000000   0.000000   0.000000   0.000000   0.000000   0.000000
    11  O    0.000000   0.000000   0.000000   0.000000   0.000000   0.000000
    12  C    0.000000   0.000000   0.000000   0.000000   0.000000   0.000000
    13  F    0.000000   0.000000   0.000000   0.000000   0.000000   0.000000
    14  F    0.000000   0.000000   0.000000   0.000000   0.000000   0.000000
    15  F    0.000000   0.000000   0.000000   0.000000   0.000000   0.000000
    16  C    0.000000   0.000000   0.000000   0.000000   0.000000   0.000000
    17  F    0.000000   0.000000   0.000000   0.000000   0.000000   0.000000
    18  F    0.000000   0.000000   0.000000   0.000000   0.000000   0.000000
    19  F    0.000000   0.000000   0.000000   0.000000   0.000000   0.000000
    20  C    0.000000   0.000001   0.000302   0.000000  -0.000006   0.000000
    21  O    0.000000   0.000000  -0.000041   0.000000   0.000000   0.000000
    22  N    0.000002  -0.000003   0.003388  -0.000014   0.000040  -0.000024
    23  C   -0.000032   0.000196  -0.031282   0.001355   0.005040   0.000902
    24  F    0.000000   0.000000  -0.000307  -0.000002  -0.002765  -0.000206
    25  F    0.000000   0.000000   0.006936   0.000000  -0.000705  -0.000702
    26  C    0.000536   0.012769   0.206155  -0.031720  -0.028150  -0.033198
    27  F   -0.000021  -0.001506  -0.014865  -0.000048  -0.000268   0.000308
    28  O   -0.039630  -0.046182  -0.026936  -0.001529   0.000539   0.000343
    29  C    0.338556   0.294990  -0.003490   0.012316   0.000059  -0.000384
    30  F   -0.037345  -0.033776   0.017520  -0.006774   0.000000  -0.000441
    31  F    9.015724  -0.036741  -0.000027  -0.000004   0.000000   0.000000
    32  F   -0.036741   9.059805  -0.004277  -0.002003   0.000000   0.000014
    33  C   -0.000027  -0.004277   4.197730   0.279911   0.287939   0.268070
    34  F   -0.000004  -0.002003   0.279911   9.088610  -0.040148  -0.038942
    35  F    0.000000   0.000000   0.287939  -0.040148   9.060295  -0.037953
    36  F    0.000000   0.000014   0.268070  -0.038942  -0.037953   9.088587
    37  H    0.000000   0.000000   0.000000   0.000000   0.000000   0.000000
    38  H    0.000000   0.000000   0.000000   0.000000   0.000000   0.000000
    39  H    0.000000   0.000000   0.000000   0.000000   0.000000   0.000000
              37         38         39
     1  O    0.006145  -0.000118   0.000392
     2  C   -0.016032   0.002463  -0.000275
     3  N    0.346302  -0.031978  -0.065863
     4  C   -0.024545   0.392176   0.413242
     5  N    0.002812  -0.028829  -0.069898
     6  C   -0.000043  -0.007367   0.004487
     7  F    0.000001   0.000046   0.002722
     8  F    0.000003   0.008367  -0.000780
     9  C    0.000001   0.000270  -0.000025
    10  F    0.000000   0.000000   0.000000
    11  O    0.000000   0.000045  -0.000008
    12  C    0.000000  -0.000045   0.000009
    13  F    0.000000   0.000002   0.000000
    14  F   -0.000001   0.002519   0.000022
    15  F    0.000000   0.000002   0.000000
    16  C    0.000000  -0.000016   0.000004
    17  F    0.000000   0.000000   0.000000
    18  F    0.000000  -0.000001   0.000000
    19  F    0.000000   0.000000   0.000000
    20  C    0.000324   0.002296  -0.000920
    21  O    0.000005  -0.000100   0.000313
    22  N    0.005493  -0.000237   0.000189
    23  C   -0.000071   0.000005   0.000066
    24  F    0.000000   0.000000   0.000000
    25  F    0.000006   0.000000   0.000000
    26  C    0.000008   0.000000   0.000015
    27  F    0.000000   0.000000  -0.000003
    28  O   -0.000001   0.000000   0.000012
    29  C    0.000000   0.000000   0.000003
    30  F    0.000000   0.000000   0.000000
    31  F    0.000000   0.000000   0.000000
    32  F    0.000000   0.000000   0.000000
    33  C    0.000000   0.000000   0.000000
    34  F    0.000000   0.000000   0.000000
    35  F    0.000000   0.000000   0.000000
    36  F    0.000000   0.000000   0.000000
    37  H    0.365393  -0.004025   0.001105
    38  H   -0.004025   0.535347  -0.041641
    39  H    0.001105  -0.041641   0.602089
 Mulliken charges:
               1
     1  O   -0.525160
     2  C    0.774842
     3  N   -0.563426
     4  C    0.099893
     5  N   -0.591128
     6  C    0.771460
     7  F   -0.255056
     8  F   -0.279490
     9  C    0.431446
    10  F   -0.258812
    11  O   -0.499754
    12  C    0.982632
    13  F   -0.236916
    14  F   -0.244941
    15  F   -0.238085
    16  C    0.804786
    17  F   -0.244285
    18  F   -0.251325
    19  F   -0.256473
    20  C    0.840464
    21  O   -0.503254
    22  N   -0.641396
    23  C    0.753782
    24  F   -0.257472
    25  F   -0.254004
    26  C    0.435120
    27  F   -0.258355
    28  O   -0.508156
    29  C    0.995599
    30  F   -0.242914
    31  F   -0.241000
    32  F   -0.243285
    33  C    0.813285
    34  F   -0.261007
    35  F   -0.243921
    36  F   -0.246378
    37  H    0.317121
    38  H    0.170820
    39  H    0.154743
 Sum of Mulliken charges =   0.00000
 Mulliken charges with hydrogens summed into heavy atoms:
               1
     1  O   -0.525160
     2  C    0.774842
     3  N   -0.246305
     4  C    0.425456
     5  N   -0.591128
     6  C    0.771460
     7  F   -0.255056
     8  F   -0.279490
     9  C    0.431446
    10  F   -0.258812
    11  O   -0.499754
    12  C    0.982632
    13  F   -0.236916
    14  F   -0.244941
    15  F   -0.238085
    16  C    0.804786
    17  F   -0.244285
    18  F   -0.251325
    19  F   -0.256473
    20  C    0.840464
    21  O   -0.503254
    22  N   -0.641396
    23  C    0.753782
    24  F   -0.257472
    25  F   -0.254004
    26  C    0.435120
    27  F   -0.258355
    28  O   -0.508156
    29  C    0.995599
    30  F   -0.242914
    31  F   -0.241000
    32  F   -0.243285
    33  C    0.813285
    34  F   -0.261007
    35  F   -0.243921
    36  F   -0.246378
 Electronic spatial extent (au):  <R**2>=          16904.8737
 Charge=              0.0000 electrons
 Dipole moment (field-independent basis, Debye):
    X=              3.0402    Y=              4.2204    Z=             -2.1430  Tot=              5.6256
 Quadrupole moment (field-independent basis, Debye-Ang):
   XX=           -196.4343   YY=           -187.4850   ZZ=           -192.4096
   XY=              9.5476   XZ=              6.2408   YZ=             -6.7349
 Traceless Quadrupole moment (field-independent basis, Debye-Ang):
   XX=             -4.3247   YY=              4.6246   ZZ=             -0.2999
   XY=              9.5476   XZ=              6.2408   YZ=             -6.7349
 Octapole moment (field-independent basis, Debye-Ang**2):
  XXX=             46.9990  YYY=            141.1201  ZZZ=            -35.3922  XYY=             35.8491
  XXY=             30.3829  XXZ=            -18.1071  XZZ=             15.8316  YZZ=             30.4640
  YYZ=            -27.4262  XYZ=              8.1762
 Hexadecapole moment (field-independent basis, Debye-Ang**3):
 XXXX=         -13356.8418 YYYY=          -2045.7596 ZZZZ=          -2004.9303 XXXY=            414.2081
 XXXZ=            469.7391 YYYX=            442.8384 YYYZ=            -92.8893 ZZZX=            405.8787
 ZZZY=            -67.2328 XXYY=          -2623.9269 XXZZ=          -2561.3431 YYZZ=           -712.7074
 XXYZ=            -42.8127 YYXZ=            151.1145 ZZXY=            136.6567
 N-N= 5.188493697763D+03 E-N=-1.672289754731D+04  KE= 2.663325149604D+03
 No NMR shielding tensors so no spin-rotation constants.
 Leave Link  601 at Sun Mar  3 18:07:04 2024, MaxMem=  5368709120 cpu:         4.4
 (Enter /home/k0335/k033513/app/g09/l9999.exe)
 1\1\GINC-C18U05N1\SP\RCAM-B3LYP\6-31G(d,p)\C11H3F18N3O4\K033513\03-Mar
 -2024\0\\#p CAM-B3LYP/6-31G(d,p) SCRF=(PCM,Solvent=Generic,Read) NoSym
 m out=wfn\\Title A591161042_0\\0,1\O,0,-1.876892,2.516734,1.287754\C,0
 ,-0.927869,1.861482,0.871409\N,0,0.132161,2.525908,0.343558\C,0,0.9324
 6,1.900938,-0.645385\N,0,1.174102,0.536263,-0.320097\C,0,2.185173,-0.1
 45238,-1.121497\F,0,1.592676,-0.62616,-2.246568\F,0,3.033946,0.817724,
 -1.586199\C,0,3.016722,-1.252966,-0.406471\F,0,2.299609,-2.424677,-0.4
 01549\O,0,3.243885,-1.009386,0.990917\C,0,4.221491,-0.042148,1.261109\
 F,0,4.149393,0.291825,2.561533\F,0,4.007442,1.058745,0.525965\F,0,5.43
 9567,-0.538859,1.004638\C,0,4.250222,-1.511566,-1.277828\F,0,3.920665,
 -1.879196,-2.536417\F,0,5.052965,-0.428269,-1.381726\F,0,5.009931,-2.5
 07357,-0.759116\C,0,0.122355,-0.200825,0.174223\O,0,0.056232,-1.410437
 ,-0.010027\N,0,-0.838342,0.494344,0.878591\C,0,-1.981208,-0.254852,1.3
 7942\F,0,-1.539996,-1.424639,1.923444\F,0,-2.523068,0.400624,2.447098\
 C,0,-3.077553,-0.525374,0.321106\F,0,-2.556088,-1.293006,-0.681\O,0,-3
 .448234,0.710317,-0.305028\C,0,-4.595365,0.604671,-1.104545\F,0,-5.685
 739,0.590077,-0.322183\F,0,-4.653298,1.683154,-1.908409\F,0,-4.554652,
 -0.498098,-1.867617\C,0,-4.178337,-1.299734,1.058961\F,0,-5.144673,-1.
 7194,0.205227\F,0,-3.721989,-2.409052,1.679182\F,0,-4.793795,-0.538485
 ,1.991455\H,0,-0.02102,3.525891,0.280205\H,0,1.868151,2.464436,-0.6977
 17\H,0,0.408972,1.95659,-1.606415\\Version=ES64L-G09RevD.01\HF=-2682.5
 07847\RMSD=8.154e-09\Dipole=1.1961081,1.6604389,-0.8431085\Quadrupole=
 -3.2152993,3.4383009,-0.2230016,7.098387,4.6398572,-5.0072657\PG=C01 [
 X(C11H3F18N3O4)]\\@

 Writing a WFN file to "A591161042/A591161042_0.wfn"


 Standing in the middle of the road is very dangerous;
 you get knocked down by the traffic from both sides.
                                -- Margaret Thatcher
 Job cpu time:       0 days  0 hours 17 minutes 21.5 seconds.
 File lengths (MBytes):  RWF=    340 Int=      0 D2E=      0 Chk=     13 Scr=      1
 Normal termination of Gaussian 09 at Sun Mar  3 18:07:05 2024.
