 Entering Gaussian System, Link 0=g09
 Initial command:
 /home/k0335/k033513/app/g09/l1.exe "/home/k0335/k033513/app/g09/scratch/Gau-674963.inp" -scrdir="/home/k0335/k033513/app/g09/scratch/"
 Default is to use a total of  36 processors:
                               36 via shared-memory
                                1 via Linda
 Entering Link 1 = /home/k0335/k033513/app/g09/l1.exe PID=    674964.
  
 Copyright (c) 1988,1990,1992,1993,1995,1998,2003,2009,2013,
            Gaussian, Inc.  All Rights Reserved.
  
 This is part of the Gaussian(R) 09 program.  It is based on
 the Gaussian(R) 03 system (copyright 2003, Gaussian, Inc.),
 the Gaussian(R) 98 system (copyright 1998, Gaussian, Inc.),
 the Gaussian(R) 94 system (copyright 1995, Gaussian, Inc.),
 the Gaussian 92(TM) system (copyright 1992, Gaussian, Inc.),
 the Gaussian 90(TM) system (copyright 1990, Gaussian, Inc.),
 the Gaussian 88(TM) system (copyright 1988, Gaussian, Inc.),
 the Gaussian 86(TM) system (copyright 1986, Carnegie Mellon
 University), and the Gaussian 82(TM) system (copyright 1983,
 Carnegie Mellon University). Gaussian is a federally registered
 trademark of Gaussian, Inc.
  
 This software contains proprietary and confidential information,
 including trade secrets, belonging to Gaussian, Inc.
  
 This software is provided under written license and may be
 used, copied, transmitted, or stored only in accord with that
 written license.
  
 The following legend is applicable only to US Government
 contracts under FAR:
  
                    RESTRICTED RIGHTS LEGEND
  
 Use, reproduction and disclosure by the US Government is
 subject to restrictions as set forth in subparagraphs (a)
 and (c) of the Commercial Computer Software - Restricted
 Rights clause in FAR 52.227-19.
  
 Gaussian, Inc.
 340 Quinnipiac St., Bldg. 40, Wallingford CT 06492
  
  
 ---------------------------------------------------------------
 Warning -- This program may not be used in any manner that
 competes with the business of Gaussian, Inc. or will provide
 assistance to any competitor of Gaussian, Inc.  The licensee
 of this program is prohibited from giving any competitor of
 Gaussian, Inc. access to this program.  By using this program,
 the user acknowledges that Gaussian, Inc. is engaged in the
 business of creating and licensing software in the field of
 computational chemistry and represents and warrants to the
 licensee that it is not a competitor of Gaussian, Inc. and that
 it will not use this program in any manner prohibited above.
 ---------------------------------------------------------------
  

 Cite this work as:
 Gaussian 09, Revision D.01,
 M. J. Frisch, G. W. Trucks, H. B. Schlegel, G. E. Scuseria, 
 M. A. Robb, J. R. Cheeseman, G. Scalmani, V. Barone, B. Mennucci, 
 G. A. Petersson, H. Nakatsuji, M. Caricato, X. Li, H. P. Hratchian, 
 A. F. Izmaylov, J. Bloino, G. Zheng, J. L. Sonnenberg, M. Hada, 
 M. Ehara, K. Toyota, R. Fukuda, J. Hasegawa, M. Ishida, T. Nakajima, 
 Y. Honda, O. Kitao, H. Nakai, T. Vreven, J. A. Montgomery, Jr., 
 J. E. Peralta, F. Ogliaro, M. Bearpark, J. J. Heyd, E. Brothers, 
 K. N. Kudin, V. N. Staroverov, T. Keith, R. Kobayashi, J. Normand, 
 K. Raghavachari, A. Rendell, J. C. Burant, S. S. Iyengar, J. Tomasi, 
 M. Cossi, N. Rega, J. M. Millam, M. Klene, J. E. Knox, J. B. Cross, 
 V. Bakken, C. Adamo, J. Jaramillo, R. Gomperts, R. E. Stratmann, 
 O. Yazyev, A. J. Austin, R. Cammi, C. Pomelli, J. W. Ochterski, 
 R. L. Martin, K. Morokuma, V. G. Zakrzewski, G. A. Voth, 
 P. Salvador, J. J. Dannenberg, S. Dapprich, A. D. Daniels, 
 O. Farkas, J. B. Foresman, J. V. Ortiz, J. Cioslowski, 
 and D. J. Fox, Gaussian, Inc., Wallingford CT, 2013.
 
 ******************************************
 Gaussian 09:  ES64L-G09RevD.01 24-Apr-2013
                 3-Mar-2024 
 ******************************************
 %nprocshared=24
 Will use up to   24 processors via shared memory.
 %mem=40GB
 %rwf=A902650422/A902650422_p1.rwf
 %nosave
 %chk=A902650422/A902650422_p1.chk
 ----------------------------------------------------------------------
 #p CAM-B3LYP/6-31G(d,p) SCRF=(PCM,Solvent=Generic,Read) NoSymm out=wfn
 ----------------------------------------------------------------------
 1/38=1,40=2/1;
 2/12=2,15=1,17=6,18=5,40=1/2;
 3/5=1,6=6,7=101,11=2,16=1,25=1,30=1,70=2203,72=-2,74=-40/1,2,3;
 4//1;
 5/5=2,38=5/2;
 6/7=2,8=2,9=2,10=2,28=1/1;
 99/5=1,6=100,9=1/99;
 Leave Link    1 at Sun Mar  3 17:58:30 2024, MaxMem=  5368709120 cpu:         2.0
 (Enter /home/k0335/k033513/app/g09/l101.exe)
 -------------------
 Title A902650422_p1
 -------------------
 Symbolic Z-matrix:
 Charge =  1 Multiplicity = 2
 C                     3.63093  -1.91501  -2.01433 
 C                     2.37955  -1.89627  -1.53985 
 N                     1.8468   -1.09874  -0.51509 
 C                     2.65528  -0.31524   0.31421 
 O                     3.87419  -0.486     0.42656 
 N                     1.99283   0.67581   1.0552 
 C                     2.79629   1.62896   1.69927 
 C                     2.4251    2.61038   2.53008 
 C                     0.60382   0.70289   1.12693 
 O                    -0.05031   1.68569   1.47137 
 N                    -0.03119  -0.45036   0.74446 
 C                    -1.46362  -0.53553   0.99084 
 F                    -1.80988  -1.85736   0.9949 
 F                    -1.69582  -0.1538    2.28267 
 C                    -2.39865   0.25589   0.0309 
 F                    -2.28534   1.59244   0.28456 
 O                    -1.96873   0.09744  -1.32475 
 C                    -2.8992    0.57195  -2.26107 
 F                    -2.28248   0.687    -3.45212 
 F                    -3.90339  -0.31103  -2.37927 
 F                    -3.37743   1.77364  -1.90502 
 C                    -3.81874  -0.20875   0.38577 
 F                    -4.03578  -1.49445   0.02825 
 F                    -4.09019  -0.10455   1.70526 
 F                    -4.75756   0.53199  -0.25256 
 C                     0.4789   -1.21416  -0.27262 
 O                    -0.25148  -1.94613  -0.94594 
 H                     4.43381  -1.28736  -1.64563 
 H                     3.89088  -2.58796  -2.82703 
 H                     1.66661  -2.56378  -2.02623 
 H                     3.86583   1.5369    1.50365 
 H                     1.40224   2.80675   2.82919 
 H                     3.17676   3.26873   2.95745 
 
 NAtoms=     33 NQM=       33 NQMF=       0 NMMI=      0 NMMIF=      0
                NMic=       0 NMicF=      0.
                    Isotopes and Nuclear Properties:
 (Nuclear quadrupole moments (NQMom) in fm**2, nuclear magnetic moments (NMagM)
  in nuclear magnetons)

  Atom         1           2           3           4           5           6           7           8           9          10
 IAtWgt=          12          12          14          12          16          14          12          12          12          16
 AtmWgt=  12.0000000  12.0000000  14.0030740  12.0000000  15.9949146  14.0030740  12.0000000  12.0000000  12.0000000  15.9949146
 NucSpn=           0           0           2           0           0           2           0           0           0           0
 AtZEff=   0.0000000   0.0000000   0.0000000   0.0000000   0.0000000   0.0000000   0.0000000   0.0000000   0.0000000   0.0000000
 NQMom=    0.0000000   0.0000000   2.0440000   0.0000000   0.0000000   2.0440000   0.0000000   0.0000000   0.0000000   0.0000000
 NMagM=    0.0000000   0.0000000   0.4037610   0.0000000   0.0000000   0.4037610   0.0000000   0.0000000   0.0000000   0.0000000
 AtZNuc=   6.0000000   6.0000000   7.0000000   6.0000000   8.0000000   7.0000000   6.0000000   6.0000000   6.0000000   8.0000000

  Atom        11          12          13          14          15          16          17          18          19          20
 IAtWgt=          14          12          19          19          12          19          16          12          19          19
 AtmWgt=  14.0030740  12.0000000  18.9984033  18.9984033  12.0000000  18.9984033  15.9949146  12.0000000  18.9984033  18.9984033
 NucSpn=           2           0           1           1           0           1           0           0           1           1
 AtZEff=   0.0000000   0.0000000   0.0000000   0.0000000   0.0000000   0.0000000   0.0000000   0.0000000   0.0000000   0.0000000
 NQMom=    2.0440000   0.0000000   0.0000000   0.0000000   0.0000000   0.0000000   0.0000000   0.0000000   0.0000000   0.0000000
 NMagM=    0.4037610   0.0000000   2.6288670   2.6288670   0.0000000   2.6288670   0.0000000   0.0000000   2.6288670   2.6288670
 AtZNuc=   7.0000000   6.0000000   9.0000000   9.0000000   6.0000000   9.0000000   8.0000000   6.0000000   9.0000000   9.0000000

  Atom        21          22          23          24          25          26          27          28          29          30
 IAtWgt=          19          12          19          19          19          12          16           1           1           1
 AtmWgt=  18.9984033  12.0000000  18.9984033  18.9984033  18.9984033  12.0000000  15.9949146   1.0078250   1.0078250   1.0078250
 NucSpn=           1           0           1           1           1           0           0           1           1           1
 AtZEff=   0.0000000   0.0000000   0.0000000   0.0000000   0.0000000   0.0000000   0.0000000   0.0000000   0.0000000   0.0000000
 NQMom=    0.0000000   0.0000000   0.0000000   0.0000000   0.0000000   0.0000000   0.0000000   0.0000000   0.0000000   0.0000000
 NMagM=    2.6288670   0.0000000   2.6288670   2.6288670   2.6288670   0.0000000   0.0000000   2.7928460   2.7928460   2.7928460
 AtZNuc=   9.0000000   6.0000000   9.0000000   9.0000000   9.0000000   6.0000000   8.0000000   1.0000000   1.0000000   1.0000000

  Atom        31          32          33
 IAtWgt=           1           1           1
 AtmWgt=   1.0078250   1.0078250   1.0078250
 NucSpn=           1           1           1
 AtZEff=   0.0000000   0.0000000   0.0000000
 NQMom=    0.0000000   0.0000000   0.0000000
 NMagM=    2.7928460   2.7928460   2.7928460
 AtZNuc=   1.0000000   1.0000000   1.0000000
 Leave Link  101 at Sun Mar  3 17:58:30 2024, MaxMem=  5368709120 cpu:         0.8
 (Enter /home/k0335/k033513/app/g09/l202.exe)
                          Input orientation:                          
 ---------------------------------------------------------------------
 Center     Atomic      Atomic             Coordinates (Angstroms)
 Number     Number       Type             X           Y           Z
 ---------------------------------------------------------------------
      1          6           0        3.630925   -1.915013   -2.014328
      2          6           0        2.379546   -1.896270   -1.539852
      3          7           0        1.846797   -1.098742   -0.515086
      4          6           0        2.655282   -0.315237    0.314207
      5          8           0        3.874191   -0.486003    0.426556
      6          7           0        1.992826    0.675813    1.055200
      7          6           0        2.796287    1.628955    1.699267
      8          6           0        2.425102    2.610384    2.530081
      9          6           0        0.603820    0.702888    1.126926
     10          8           0       -0.050314    1.685690    1.471369
     11          7           0       -0.031186   -0.450356    0.744463
     12          6           0       -1.463616   -0.535531    0.990838
     13          9           0       -1.809883   -1.857356    0.994899
     14          9           0       -1.695819   -0.153797    2.282671
     15          6           0       -2.398653    0.255888    0.030902
     16          9           0       -2.285345    1.592441    0.284560
     17          8           0       -1.968732    0.097441   -1.324748
     18          6           0       -2.899200    0.571953   -2.261074
     19          9           0       -2.282480    0.686995   -3.452123
     20          9           0       -3.903385   -0.311025   -2.379271
     21          9           0       -3.377429    1.773642   -1.905017
     22          6           0       -3.818740   -0.208751    0.385769
     23          9           0       -4.035783   -1.494445    0.028252
     24          9           0       -4.090187   -0.104546    1.705258
     25          9           0       -4.757563    0.531989   -0.252561
     26          6           0        0.478899   -1.214162   -0.272615
     27          8           0       -0.251484   -1.946125   -0.945935
     28          1           0        4.433813   -1.287356   -1.645625
     29          1           0        3.890878   -2.587964   -2.827031
     30          1           0        1.666611   -2.563779   -2.026231
     31          1           0        3.865826    1.536903    1.503649
     32          1           0        1.402235    2.806747    2.829185
     33          1           0        3.176762    3.268730    2.957446
 ---------------------------------------------------------------------
                    Distance matrix (angstroms):
                    1          2          3          4          5
     1  C    0.000000
     2  C    1.338442   0.000000
     3  N    2.469238   1.403573   0.000000
     4  C    2.988852   2.452189   1.398304   0.000000
     5  O    2.838866   2.844218   2.317858   1.235930   0.000000
     6  N    4.337943   3.674161   2.374062   1.403602   2.298814
     7  C    5.200684   4.805494   3.639398   2.391267   2.693458
     8  C    6.525709   6.072591   4.833745   3.677273   4.014012
     9  C    5.087656   4.125595   2.736250   2.430141   3.549550
    10  O    6.218253   5.272771   3.911278   3.558508   4.605391
    11  N    4.813232   3.622208   2.352379   2.724057   3.918457
    12  C    6.073577   4.798531   3.680197   4.179914   5.367779
    13  F    6.217810   4.896712   4.028258   4.772753   5.874719
    14  F    7.066844   5.852905   4.611995   4.778388   5.880522
    15  C    6.726930   5.470853   4.489652   5.093987   6.328943
    16  F    7.251853   6.104162   4.995648   5.296217   6.502305
    17  O    5.990129   4.788390   4.079788   4.923209   6.127579
    18  C    6.992025   5.871750   5.325804   6.186392   7.363522
    19  F    6.618615   5.662555   5.372706   6.290565   7.370527
    20  F    7.711795   6.533976   6.095923   7.090201   8.270065
    21  F    7.920552   6.836985   6.121686   6.758844   7.945327
    22  C    8.010575   6.706302   5.805337   6.475293   7.698033
    23  F    7.945277   6.616408   5.920857   6.800195   7.983940
    24  F    8.759491   7.456437   6.416084   6.890629   8.075389
    25  F    8.913943   7.647999   6.807773   7.482599   8.718067
    26  C    3.668791   2.384034   1.394008   2.426740   3.542183
    27  O    4.026851   2.697692   2.303578   3.563291   4.586598
    28  H    1.083755   2.145222   2.829549   2.819420   2.291130
    29  H    1.086704   2.102236   3.426535   4.069320   3.873544
    30  H    2.068712   1.091059   2.112430   3.392796   3.899580
    31  H    4.934274   4.822717   3.885665   2.512093   2.291800
    32  H    7.121917   6.493226   5.160875   4.200241   4.767116
    33  H    7.196943   6.894815   5.736035   4.483690   4.581466
                    6          7          8          9         10
     6  N    0.000000
     7  C    1.403158   0.000000
     8  C    2.470769   1.338370   0.000000
     9  C    1.391120   2.447874   2.987382   0.000000
    10  O    2.316780   2.856273   2.846685   1.229810   0.000000
    11  N    2.336972   3.637278   4.311602   1.370942   2.256424
    12  C    3.663125   4.830491   5.233372   2.413813   2.676220
    13  F    4.569593   5.819562   6.344492   3.521114   3.984505
    14  F    3.975052   4.868016   4.968289   2.712562   2.598001
    15  C    4.528864   5.626380   5.920993   3.227371   3.103865
    16  F    4.442616   5.275008   5.316661   3.138178   2.532306
    17  O    4.657532   5.847701   6.362418   3.604899   3.744480
    18  C    5.911039   7.017131   7.447050   4.875124   4.825732
    19  F    6.212433   7.295066   7.851593   5.412825   5.497338
    20  F    6.894545   8.079827   8.525615   5.799684   5.801763
    21  F    6.229587   7.150284   7.351163   5.117571   4.741035
    22  C    5.916493   6.990066   7.178521   4.575963   4.355281
    23  F    6.489127   7.695785   8.053062   5.249883   5.299038
    24  F    6.167218   7.101309   7.106347   4.797929   4.424955
    25  F    6.877403   7.878681   7.978314   5.538648   5.144041
    26  C    2.761716   4.164363   5.125423   2.376847   3.425009
    27  O    3.989490   5.391400   6.325233   3.470672   4.367369
    28  H    4.136050   4.730186   6.055065   5.130006   6.217881
    29  H    5.415400   6.282349   7.607231   6.104771   7.230031
    30  H    4.482922   5.721409   6.935939   4.662943   5.765329
    31  H    2.109671   1.091171   2.069205   3.387947   3.919098
    32  H    2.834907   2.146460   1.083641   2.821591   2.282615
    33  H    3.426874   2.101580   1.086763   4.068707   3.889532
                   11         12         13         14         15
    11  N    0.000000
    12  C    1.455957   0.000000
    13  F    2.281695   1.366433   0.000000
    14  F    2.285833   1.366920   2.138570   0.000000
    15  C    2.571546   1.556315   2.396193   2.394218   0.000000
    16  F    3.076648   2.387956   3.554117   2.718333   1.365121
    17  O    2.887179   2.453107   3.037635   3.626441   1.430987
    18  C    4.278303   3.723218   4.205890   4.756097   2.367192
    19  F    4.896246   4.680279   5.145199   5.825716   3.511526
    20  F    4.977053   4.166595   4.261328   5.160598   2.897334
    21  F    4.812822   4.169045   4.904168   4.907093   2.647520
    22  C    3.812165   2.453467   2.669165   2.847464   1.535730
    23  F    4.199985   2.908974   2.453720   3.514993   2.396637
    24  F    4.185475   2.755906   2.962556   2.463499   2.407212
    25  F    4.929270   3.679093   3.994239   4.033854   2.391869
    26  C    1.370414   2.414584   2.694218   3.518985   3.245532
    27  O    2.267885   2.685168   2.490647   3.965153   3.226981
    28  H    5.133157   6.503526   6.803015   7.368097   7.202426
    29  H    5.719049   6.889065   6.902146   7.952698   7.470842
    30  H    3.876315   4.797376   4.659643   5.973323   5.358049
    31  H    4.439850   5.741159   6.632759   5.864916   6.561530
    32  H    4.124255   4.771105   5.952828   4.319889   5.365074
    33  H    5.387005   6.314512   7.415860   5.992584   6.980482
                   16         17         18         19         20
    16  F    0.000000
    17  O    2.219266   0.000000
    18  C    2.810421   1.402725   0.000000
    19  F    3.844820   2.229739   1.346171   0.000000
    20  F    3.652018   2.240925   1.342389   2.185037   0.000000
    21  F    2.453514   2.265125   1.341468   2.184777   2.201677
    22  C    2.367665   2.538139   2.908751   4.229878   2.768225
    23  F    3.557892   2.938947   3.286767   4.466068   2.685922
    24  F    2.855802   3.704363   4.196176   5.522040   4.094009
    25  F    2.743159   3.019271   2.736647   4.048118   2.441964
    26  C    3.978506   2.969543   4.307636   4.620485   4.945510
    27  O    4.262881   2.696034   3.883389   4.164042   4.250222
    28  H    7.560815   6.558445   7.590052   7.229806   8.426169
    29  H    8.081059   6.618405   7.510695   7.016156   8.132372
    30  H    6.183193   4.559593   5.543879   5.309992   6.018670
    31  H    6.271058   6.641833   7.801913   7.942524   8.879896
    32  H    4.641972   5.996575   7.029039   7.584544   8.062141
    33  H    6.307843   7.407454   8.451205   8.806319   9.561573
                   21         22         23         24         25
    21  F    0.000000
    22  C    3.061427   0.000000
    23  F    3.853745   1.352012   0.000000
    24  F    4.131549   1.351145   2.178791   0.000000
    25  F    2.485374   1.355562   2.169391   2.164168   0.000000
    26  C    5.144218   4.462513   4.533369   5.100958   5.519962
    27  O    4.952579   4.185358   3.933697   5.015564   5.189081
    28  H    8.393598   8.567064   8.635902   9.235044   9.472700
    29  H    8.526547   8.684523   8.495904   9.508228   9.547645
    30  H    6.653590   6.438399   6.154809   7.287836   7.348449
    31  H    8.008732   7.959241   8.590768   8.126078   8.857594
    32  H    6.806259   6.505543   7.477802   6.317083   7.253606
    33  H    8.296762   8.224564   9.126271   8.108977   8.985956
                   26         27         28         29         30
    26  C    0.000000
    27  O    1.233932   0.000000
    28  H    4.187106   4.782839   0.000000
    29  H    4.478166   4.594523   1.839043   0.000000
    30  H    2.511433   2.286400   3.071079   2.364155   0.000000
    31  H    4.711130   5.923191   4.268135   5.980798   5.840564
    32  H    5.161533   6.290955   6.780566   8.202989   7.244826
    33  H    6.148827   7.360976   6.597451   8.262627   7.818936
                   31         32         33
    31  H    0.000000
    32  H    3.072268   0.000000
    33  H    2.363802   1.838158   0.000000
 Symmetry turned off by external request.
 Stoichiometry    C11H6F9N3O4(1+,2)
 Framework group  C1[X(C11H6F9N3O4)]
 Deg. of freedom    93
 Full point group                 C1      NOp   1
 Rotational constants (GHZ):      0.3207858      0.1460824      0.1286681
 Leave Link  202 at Sun Mar  3 17:58:30 2024, MaxMem=  5368709120 cpu:         0.0
 (Enter /home/k0335/k033513/app/g09/l301.exe)
 Standard basis: 6-31G(d,p) (6D, 7F)
 Ernie: Thresh=  0.10000D-02 Tol=  0.10000D-05 Strict=F.
   435 basis functions,   798 primitive gaussians,   435 cartesian basis functions
   103 alpha electrons      102 beta electrons
       nuclear repulsion energy      3077.2400633420 Hartrees.
 IExCor=20419 DFT=T Ex+Corr=CAM-B3LYP ExCW=0 ScaHFX=  1.000000
 ScaDFX=  1.000000  1.000000  1.000000  0.810000 ScalE2=  1.000000  1.000000
 IRadAn=      0 IRanWt=     -1 IRanGd=            0 ICorTp=0 IEmpDi=  4
  HFx wShort=  0.000000 wLong=  0.330000 cFull=  0.190000 cShort=  0.000000 cLong=  0.460000
  DFx wShort=  0.000000 wLong=  0.330000 cFull=  0.190000 cShort=  0.000000 cLong=  0.460000
 NAtoms=   33 NActive=   33 NUniq=   33 SFac= 1.00D+00 NAtFMM=   60 NAOKFM=F Big=F
 Integral buffers will be    131072 words long.
 Raffenetti 2 integral format.
 Two-electron integral symmetry is turned off.
 Using the following non-standard input for PCM:
 eps=4.9
 --- end of non-standard input.
 ------------------------------------------------------------------------------
 Polarizable Continuum Model (PCM)
 =================================
 Model                : PCM (using non-symmetric T matrix).
 Atomic radii         : UFF (Universal Force Field).
 Polarization charges : Total charges.
 Charge compensation  : None.
 Solution method      : On-the-fly selection.
 Cavity type          : Scaled VdW (van der Waals Surface) (Alpha=1.100).
 Cavity algorithm     : GePol (No added spheres)
                        Default sphere list used, NSphG=   33.
                        Lebedev-Laikov grids with approx.  5.0 points / Ang**2.
                        Smoothing algorithm: Karplus/York (Gamma=1.0000).
                        Polarization charges: spherical gaussians, with
                                              point-specific exponents (IZeta= 3).
                        Self-potential: point-specific (ISelfS= 7).
                        Self-field    : sphere-specific E.n sum rule (ISelfD= 2).
 Solvent              : Generic,
                        Eps                           =   4.900000
                        Eps(infinity)                 =   0.000000
                        RSolv                         =   0.000000 Ang.
                        Molar volume                  =   0.000000 cm**3/mol
                        Thermal expansion coefficient =   0.000000 K**-1
                        Absolute temperature          = 298.150000 K
                        Numeral density               =   0.000000 Ang**-3
                        Hydrogen bond acidity         =   0.000000
                        Hydrogen bond basicity        =   0.000000
                        Surface tension at interface  =   0.000000 (cal/mol)*Ang**-2
                        Carbon aromaticity            =   0.000000
                        Electronegative halogenicity  =   0.000000
 ------------------------------------------------------------------------------
 GePol: Number of generator spheres                  =      33
 GePol: Total number of spheres                      =      33
 GePol: Number of exposed spheres                    =      33 (100.00%)
 GePol: Number of points                             =    2737
 GePol: Average weight of points                     =       0.13
 GePol: Minimum weight of points                     =   0.66D-09
 GePol: Maximum weight of points                     =    0.20577
 GePol: Number of points with low weight             =     143
 GePol: Fraction of low-weight points (<1% of avg)   =       5.22%
 GePol: Cavity surface area                          =    348.646 Ang**2
 GePol: Cavity volume                                =    392.689 Ang**3
 Leave Link  301 at Sun Mar  3 17:58:30 2024, MaxMem=  5368709120 cpu:         0.8
 (Enter /home/k0335/k033513/app/g09/l302.exe)
 NPDir=0 NMtPBC=     1 NCelOv=     1 NCel=       1 NClECP=     1 NCelD=      1
         NCelK=      1 NCelE2=     1 NClLst=     1 CellRange=     0.0.
 One-electron integrals computed using PRISM.
 NBasis=   435 RedAO= T EigKep=  1.13D-03  NBF=   435
 NBsUse=   435 1.00D-06 EigRej= -1.00D+00 NBFU=   435
 Precomputing XC quadrature grid using
 IXCGrd= 4 IRadAn=           0 IRanWt=          -1 IRanGd=           0 AccXCQ= 0.00D+00.
 Generated NRdTot=       0 NPtTot=           0 NUsed=           0 NTot=          32
 NSgBfM=   428   428   428   428   428 MxSgAt=    33 MxSgA2=    33.
 Leave Link  302 at Sun Mar  3 17:58:30 2024, MaxMem=  5368709120 cpu:         6.5
 (Enter /home/k0335/k033513/app/g09/l303.exe)
 DipDrv:  MaxL=1.
 Leave Link  303 at Sun Mar  3 17:58:30 2024, MaxMem=  5368709120 cpu:         0.6
 (Enter /home/k0335/k033513/app/g09/l401.exe)
 ExpMin= 1.61D-01 ExpMax= 7.00D+03 ExpMxC= 1.05D+03 IAcc=1 IRadAn=         1 AccDes= 0.00D+00
 Harris functional with IExCor=20419 and IRadAn=       1 diagonalized for initial guess.
 HarFok:  IExCor=20419 AccDes= 0.00D+00 IRadAn=         1 IDoV= 1 UseB2=F ITyADJ=14
 ICtDFT=  3500011 ScaDFX=  1.000000  1.000000  1.000000  1.000000
 FoFCou: FMM=F IPFlag=           0 FMFlag=      100000 FMFlg1=           0
         NFxFlg=           0 DoJE=T BraDBF=F KetDBF=T FulRan=T
         wScrn=  0.000000 ICntrl=     500 IOpCl=  0 I1Cent=   200000004 NGrid=           0
         NMat0=    1 NMatS0=      1 NMatT0=    0 NMatD0=    1 NMtDS0=    0 NMtDT0=    0
 Symmetry not used in FoFCou.
 Harris En= -1730.13692759270    
 JPrj=0 DoOrth=F DoCkMO=F.
 Initial guess <Sx>= 0.0000 <Sy>= 0.0000 <Sz>= 0.5000 <S**2>= 0.7500 S= 0.5000
 Leave Link  401 at Sun Mar  3 17:58:31 2024, MaxMem=  5368709120 cpu:         8.7
 (Enter /home/k0335/k033513/app/g09/l502.exe)
 UHF open shell SCF:
 Using DIIS extrapolation, IDIIS=  1040.
 Two-electron integral symmetry not used.
 IVT=      599341 IEndB=      599341 NGot=  5368709120 MDV=  5368316080
 LenX=  5368316080 LenY=  5368126414
 Requested convergence on RMS density matrix=1.00D-08 within 128 cycles.
 Requested convergence on MAX density matrix=1.00D-06.
 Requested convergence on             energy=1.00D-06.
 No special actions if energy rises.
 Fock matrices will be formed incrementally for  20 cycles.

 Cycle   1  Pass 1  IDiag  1:
 FoFJK:  IHMeth= 1 ICntrl=       0 DoSepK=T KAlg= 0 I1Cent=   0 FoldK=F
 IRaf=         1 NMat=   1 IRICut=       1 DoRegI=T DoRafI=F ISym2E= 0.
 FoFCou: FMM=F IPFlag=           0 FMFlag=      100000 FMFlg1=           0
         NFxFlg=           0 DoJE=T BraDBF=F KetDBF=F FulRan=T
         wScrn=  0.000000 ICntrl=     500 IOpCl=  0 I1Cent=           0 NGrid=           0
         NMat0=    1 NMatS0=      1 NMatT0=    0 NMatD0=    1 NMtDS0=    0 NMtDT0=    0
 Symmetry not used in FoFCou.
 Inv3:  Mode=1 IEnd=    22473507.
 Iteration    1 A*A^-1 deviation from unit magnitude is 7.55D-15 for    758.
 Iteration    1 A*A^-1 deviation from orthogonality  is 4.08D-15 for   2723    242.
 Iteration    1 A^-1*A deviation from unit magnitude is 6.22D-15 for   1102.
 Iteration    1 A^-1*A deviation from orthogonality  is 4.69D-13 for   2728   2714.
 E= -1784.70932643267    
 DIIS: error= 4.28D-02 at cycle   1 NSaved=   1.
 NSaved= 1 IEnMin= 1 EnMin= -1784.70932643267     IErMin= 1 ErrMin= 4.28D-02
 ErrMax= 4.28D-02  0.00D+00 EMaxC= 1.00D-01 BMatC= 6.90D+00 BMatP= 6.90D+00
 IDIUse=3 WtCom= 5.72D-01 WtEn= 4.28D-01
 Coeff-Com:  0.100D+01
 Coeff-En:   0.100D+01
 Coeff:      0.100D+01
 Gap=     0.654 Goal=   None    Shift=    0.000
 Gap=    -0.084 Goal=   None    Shift=    0.000
 GapD=   -0.084 DampG=0.250 DampE=0.500 DampFc=0.2500 IDamp=-1.
 Damping current iteration by 2.50D-01
 RMSDP=4.42D-03 MaxDP=1.73D-01              OVMax= 4.96D-01

 Cycle   2  Pass 1  IDiag  1:
 RMSU=  1.10D-03    CP:  1.00D+00
 E= -1785.01567448503     Delta-E=       -0.306348052361 Rises=F Damp=T
 DIIS: error= 3.17D-02 at cycle   2 NSaved=   2.
 NSaved= 2 IEnMin= 2 EnMin= -1785.01567448503     IErMin= 2 ErrMin= 3.17D-02
 ErrMax= 3.17D-02  0.00D+00 EMaxC= 1.00D-01 BMatC= 2.73D+00 BMatP= 6.90D+00
 IDIUse=3 WtCom= 6.83D-01 WtEn= 3.17D-01
 Coeff-Com: -0.128D+01 0.228D+01
 Coeff-En:   0.000D+00 0.100D+01
 Coeff:     -0.873D+00 0.187D+01
 Gap=     0.365 Goal=   None    Shift=    0.000
 Gap=     0.037 Goal=   None    Shift=    0.000
 RMSDP=2.23D-03 MaxDP=7.29D-02 DE=-3.06D-01 OVMax= 2.41D-01

 Cycle   3  Pass 1  IDiag  1:
 RMSU=  1.49D-03    CP:  1.00D+00  2.51D+00
 E= -1785.55216374804     Delta-E=       -0.536489263009 Rises=F Damp=F
 DIIS: error= 9.12D-03 at cycle   3 NSaved=   3.
 NSaved= 3 IEnMin= 3 EnMin= -1785.55216374804     IErMin= 3 ErrMin= 9.12D-03
 ErrMax= 9.12D-03  0.00D+00 EMaxC= 1.00D-01 BMatC= 4.02D-01 BMatP= 2.73D+00
 IDIUse=3 WtCom= 9.09D-01 WtEn= 9.12D-02
 Coeff-Com: -0.494D+00 0.879D+00 0.615D+00
 Coeff-En:   0.000D+00 0.000D+00 0.100D+01
 Coeff:     -0.449D+00 0.798D+00 0.650D+00
 Gap=     0.334 Goal=   None    Shift=    0.000
 Gap=     0.073 Goal=   None    Shift=    0.000
 RMSDP=8.90D-04 MaxDP=5.06D-02 DE=-5.36D-01 OVMax= 9.16D-02

 Cycle   4  Pass 1  IDiag  1:
 RMSU=  7.80D-04    CP:  1.00D+00  2.58D+00  7.18D-01
 E= -1785.60572325294     Delta-E=       -0.053559504899 Rises=F Damp=F
 DIIS: error= 5.50D-03 at cycle   4 NSaved=   4.
 NSaved= 4 IEnMin= 4 EnMin= -1785.60572325294     IErMin= 4 ErrMin= 5.50D-03
 ErrMax= 5.50D-03  0.00D+00 EMaxC= 1.00D-01 BMatC= 1.25D-01 BMatP= 4.02D-01
 IDIUse=3 WtCom= 9.45D-01 WtEn= 5.50D-02
 Coeff-Com: -0.997D-02 0.354D-01 0.354D+00 0.620D+00
 Coeff-En:   0.000D+00 0.000D+00 0.235D+00 0.765D+00
 Coeff:     -0.942D-02 0.335D-01 0.348D+00 0.628D+00
 Gap=     0.351 Goal=   None    Shift=    0.000
 Gap=     0.088 Goal=   None    Shift=    0.000
 RMSDP=3.59D-04 MaxDP=2.31D-02 DE=-5.36D-02 OVMax= 5.35D-02

 Cycle   5  Pass 1  IDiag  1:
 RMSU=  1.92D-04    CP:  1.00D+00  2.52D+00  8.49D-01  7.13D-01
 E= -1785.62813653223     Delta-E=       -0.022413279289 Rises=F Damp=F
 DIIS: error= 9.09D-04 at cycle   5 NSaved=   5.
 NSaved= 5 IEnMin= 5 EnMin= -1785.62813653223     IErMin= 5 ErrMin= 9.09D-04
 ErrMax= 9.09D-04  0.00D+00 EMaxC= 1.00D-01 BMatC= 5.10D-03 BMatP= 1.25D-01
 IDIUse=3 WtCom= 9.91D-01 WtEn= 9.09D-03
 Coeff-Com:  0.144D-01-0.189D-01 0.125D+00 0.284D+00 0.595D+00
 Coeff-En:   0.000D+00 0.000D+00 0.000D+00 0.000D+00 0.100D+01
 Coeff:      0.142D-01-0.187D-01 0.124D+00 0.282D+00 0.598D+00
 Gap=     0.326 Goal=   None    Shift=    0.000
 Gap=     0.090 Goal=   None    Shift=    0.000
 RMSDP=8.23D-05 MaxDP=4.85D-03 DE=-2.24D-02 OVMax= 1.27D-02

 Cycle   6  Pass 1  IDiag  1:
 RMSU=  7.31D-05    CP:  1.00D+00  2.53D+00  8.51D-01  7.47D-01  8.64D-01
 E= -1785.62945623210     Delta-E=       -0.001319699874 Rises=F Damp=F
 DIIS: error= 6.52D-04 at cycle   6 NSaved=   6.
 NSaved= 6 IEnMin= 6 EnMin= -1785.62945623210     IErMin= 6 ErrMin= 6.52D-04
 ErrMax= 6.52D-04  0.00D+00 EMaxC= 1.00D-01 BMatC= 5.15D-04 BMatP= 5.10D-03
 IDIUse=3 WtCom= 9.93D-01 WtEn= 6.52D-03
 Coeff-Com: -0.629D-02 0.697D-02-0.125D-01-0.148D-01 0.159D+00 0.868D+00
 Coeff-En:   0.000D+00 0.000D+00 0.000D+00 0.000D+00 0.000D+00 0.100D+01
 Coeff:     -0.625D-02 0.692D-02-0.124D-01-0.147D-01 0.158D+00 0.869D+00
 Gap=     0.327 Goal=   None    Shift=    0.000
 Gap=     0.092 Goal=   None    Shift=    0.000
 RMSDP=4.96D-05 MaxDP=3.21D-03 DE=-1.32D-03 OVMax= 1.39D-02

 Cycle   7  Pass 1  IDiag  1:
 RMSU=  3.37D-05    CP:  1.00D+00  2.53D+00  8.54D-01  7.58D-01  1.02D+00
                    CP:  1.25D+00
 E= -1785.62984953777     Delta-E=       -0.000393305671 Rises=F Damp=F
 DIIS: error= 4.24D-04 at cycle   7 NSaved=   7.
 NSaved= 7 IEnMin= 7 EnMin= -1785.62984953777     IErMin= 7 ErrMin= 4.24D-04
 ErrMax= 4.24D-04  0.00D+00 EMaxC= 1.00D-01 BMatC= 2.08D-04 BMatP= 5.15D-04
 IDIUse=3 WtCom= 9.96D-01 WtEn= 4.24D-03
 Coeff-Com: -0.100D-01 0.136D-01-0.336D-01-0.703D-01-0.496D-01 0.375D+00
 Coeff-Com:  0.774D+00
 Coeff-En:   0.000D+00 0.000D+00 0.000D+00 0.000D+00 0.000D+00 0.000D+00
 Coeff-En:   0.100D+01
 Coeff:     -0.996D-02 0.135D-01-0.334D-01-0.700D-01-0.494D-01 0.374D+00
 Coeff:      0.775D+00
 Gap=     0.328 Goal=   None    Shift=    0.000
 Gap=     0.094 Goal=   None    Shift=    0.000
 RMSDP=3.58D-05 MaxDP=2.35D-03 DE=-3.93D-04 OVMax= 1.11D-02

 Cycle   8  Pass 1  IDiag  1:
 RMSU=  1.93D-05    CP:  1.00D+00  2.53D+00  8.53D-01  7.59D-01  1.10D+00
                    CP:  1.56D+00  1.32D+00
 E= -1785.63004621341     Delta-E=       -0.000196675635 Rises=F Damp=F
 DIIS: error= 2.47D-04 at cycle   8 NSaved=   8.
 NSaved= 8 IEnMin= 8 EnMin= -1785.63004621341     IErMin= 8 ErrMin= 2.47D-04
 ErrMax= 2.47D-04  0.00D+00 EMaxC= 1.00D-01 BMatC= 6.71D-05 BMatP= 2.08D-04
 IDIUse=3 WtCom= 9.98D-01 WtEn= 2.47D-03
 Coeff-Com: -0.198D-02 0.341D-02-0.549D-02-0.140D-01-0.714D-01-0.288D+00
 Coeff-Com:  0.207D+00 0.117D+01
 Coeff-En:   0.000D+00 0.000D+00 0.000D+00 0.000D+00 0.000D+00 0.000D+00
 Coeff-En:   0.000D+00 0.100D+01
 Coeff:     -0.198D-02 0.340D-02-0.547D-02-0.140D-01-0.712D-01-0.287D+00
 Coeff:      0.207D+00 0.117D+01
 Gap=     0.328 Goal=   None    Shift=    0.000
 Gap=     0.096 Goal=   None    Shift=    0.000
 RMSDP=3.84D-05 MaxDP=2.42D-03 DE=-1.97D-04 OVMax= 1.10D-02

 Cycle   9  Pass 1  IDiag  1:
 RMSU=  1.11D-05    CP:  1.00D+00  2.53D+00  8.53D-01  7.62D-01  1.18D+00
                    CP:  1.85D+00  2.03D+00  1.53D+00
 E= -1785.63016565552     Delta-E=       -0.000119442113 Rises=F Damp=F
 DIIS: error= 1.00D-04 at cycle   9 NSaved=   9.
 NSaved= 9 IEnMin= 9 EnMin= -1785.63016565552     IErMin= 9 ErrMin= 1.00D-04
 ErrMax= 1.00D-04  0.00D+00 EMaxC= 1.00D-01 BMatC= 3.29D-05 BMatP= 6.71D-05
 IDIUse=3 WtCom= 9.99D-01 WtEn= 1.00D-03
 Coeff-Com:  0.246D-02-0.306D-02 0.106D-01 0.218D-01-0.128D-01-0.314D+00
 Coeff-Com: -0.181D+00 0.714D+00 0.762D+00
 Coeff-En:   0.000D+00 0.000D+00 0.000D+00 0.000D+00 0.000D+00 0.000D+00
 Coeff-En:   0.000D+00 0.000D+00 0.100D+01
 Coeff:      0.245D-02-0.306D-02 0.105D-01 0.218D-01-0.127D-01-0.313D+00
 Coeff:     -0.181D+00 0.714D+00 0.762D+00
 Gap=     0.329 Goal=   None    Shift=    0.000
 Gap=     0.096 Goal=   None    Shift=    0.000
 RMSDP=2.03D-05 MaxDP=1.43D-03 DE=-1.19D-04 OVMax= 5.74D-03

 Cycle  10  Pass 1  IDiag  1:
 RMSU=  6.49D-06    CP:  1.00D+00  2.53D+00  8.53D-01  7.65D-01  1.21D+00
                    CP:  1.99D+00  2.36D+00  2.05D+00  1.11D+00
 E= -1785.63019549155     Delta-E=       -0.000029836026 Rises=F Damp=F
 DIIS: error= 4.35D-05 at cycle  10 NSaved=  10.
 NSaved=10 IEnMin=10 EnMin= -1785.63019549155     IErMin=10 ErrMin= 4.35D-05
 ErrMax= 4.35D-05  0.00D+00 EMaxC= 1.00D-01 BMatC= 4.58D-06 BMatP= 3.29D-05
 IDIUse=1 WtCom= 1.00D+00 WtEn= 0.00D+00
 Coeff-Com:  0.106D-02-0.149D-02 0.486D-02 0.106D-01 0.154D-01-0.421D-01
 Coeff-Com: -0.116D+00-0.128D-01 0.256D+00 0.884D+00
 Coeff:      0.106D-02-0.149D-02 0.486D-02 0.106D-01 0.154D-01-0.421D-01
 Coeff:     -0.116D+00-0.128D-01 0.256D+00 0.884D+00
 Gap=     0.329 Goal=   None    Shift=    0.000
 Gap=     0.097 Goal=   None    Shift=    0.000
 RMSDP=7.80D-06 MaxDP=4.57D-04 DE=-2.98D-05 OVMax= 1.96D-03

 Cycle  11  Pass 1  IDiag  1:
 RMSU=  2.86D-06    CP:  1.00D+00  2.54D+00  8.53D-01  7.65D-01  1.22D+00
                    CP:  2.02D+00  2.48D+00  2.22D+00  1.41D+00  1.29D+00
 E= -1785.63020031774     Delta-E=       -0.000004826191 Rises=F Damp=F
 DIIS: error= 2.33D-05 at cycle  11 NSaved=  11.
 NSaved=11 IEnMin=11 EnMin= -1785.63020031774     IErMin=11 ErrMin= 2.33D-05
 ErrMax= 2.33D-05  0.00D+00 EMaxC= 1.00D-01 BMatC= 1.51D-06 BMatP= 4.58D-06
 IDIUse=1 WtCom= 1.00D+00 WtEn= 0.00D+00
 Coeff-Com: -0.306D-03 0.361D-03-0.690D-03-0.175D-02 0.998D-02 0.630D-01
 Coeff-Com: -0.266D-02-0.188D+00-0.805D-01 0.405D+00 0.796D+00
 Coeff:     -0.306D-03 0.361D-03-0.690D-03-0.175D-02 0.998D-02 0.630D-01
 Coeff:     -0.266D-02-0.188D+00-0.805D-01 0.405D+00 0.796D+00
 Gap=     0.329 Goal=   None    Shift=    0.000
 Gap=     0.097 Goal=   None    Shift=    0.000
 RMSDP=3.50D-06 MaxDP=2.19D-04 DE=-4.83D-06 OVMax= 7.75D-04

 Cycle  12  Pass 1  IDiag  1:
 RMSU=  1.52D-06    CP:  1.00D+00  2.54D+00  8.53D-01  7.65D-01  1.23D+00
                    CP:  2.03D+00  2.52D+00  2.29D+00  1.53D+00  1.57D+00
                    CP:  1.16D+00
 E= -1785.63020163097     Delta-E=       -0.000001313228 Rises=F Damp=F
 DIIS: error= 1.35D-05 at cycle  12 NSaved=  12.
 NSaved=12 IEnMin=12 EnMin= -1785.63020163097     IErMin=12 ErrMin= 1.35D-05
 ErrMax= 1.35D-05  0.00D+00 EMaxC= 1.00D-01 BMatC= 2.71D-07 BMatP= 1.51D-06
 IDIUse=1 WtCom= 1.00D+00 WtEn= 0.00D+00
 Coeff-Com: -0.149D-03 0.213D-03-0.112D-02-0.268D-02-0.263D-02 0.165D-01
 Coeff-Com:  0.304D-01-0.224D-01-0.710D-01-0.176D+00 0.720D-01 0.116D+01
 Coeff:     -0.149D-03 0.213D-03-0.112D-02-0.268D-02-0.263D-02 0.165D-01
 Coeff:      0.304D-01-0.224D-01-0.710D-01-0.176D+00 0.720D-01 0.116D+01
 Gap=     0.329 Goal=   None    Shift=    0.000
 Gap=     0.097 Goal=   None    Shift=    0.000
 RMSDP=2.41D-06 MaxDP=1.22D-04 DE=-1.31D-06 OVMax= 6.06D-04

 Cycle  13  Pass 1  IDiag  1:
 RMSU=  7.66D-07    CP:  1.00D+00  2.53D+00  8.53D-01  7.65D-01  1.23D+00
                    CP:  2.04D+00  2.53D+00  2.33D+00  1.61D+00  1.75D+00
                    CP:  1.53D+00  1.65D+00
 E= -1785.63020208286     Delta-E=       -0.000000451889 Rises=F Damp=F
 DIIS: error= 5.30D-06 at cycle  13 NSaved=  13.
 NSaved=13 IEnMin=13 EnMin= -1785.63020208286     IErMin=13 ErrMin= 5.30D-06
 ErrMax= 5.30D-06  0.00D+00 EMaxC= 1.00D-01 BMatC= 9.31D-08 BMatP= 2.71D-07
 IDIUse=1 WtCom= 1.00D+00 WtEn= 0.00D+00
 Coeff-Com:  0.119D-03-0.155D-03-0.226D-03-0.526D-03-0.356D-02-0.102D-01
 Coeff-Com:  0.138D-01 0.348D-01-0.411D-02-0.165D+00-0.163D+00 0.454D+00
 Coeff-Com:  0.843D+00
 Coeff:      0.119D-03-0.155D-03-0.226D-03-0.526D-03-0.356D-02-0.102D-01
 Coeff:      0.138D-01 0.348D-01-0.411D-02-0.165D+00-0.163D+00 0.454D+00
 Coeff:      0.843D+00
 Gap=     0.329 Goal=   None    Shift=    0.000
 Gap=     0.097 Goal=   None    Shift=    0.000
 RMSDP=1.19D-06 MaxDP=6.30D-05 DE=-4.52D-07 OVMax= 4.40D-04

 Cycle  14  Pass 1  IDiag  1:
 RMSU=  4.80D-07    CP:  1.00D+00  2.53D+00  8.53D-01  7.65D-01  1.23D+00
                    CP:  2.04D+00  2.54D+00  2.34D+00  1.63D+00  1.83D+00
                    CP:  1.69D+00  2.08D+00  1.40D+00
 E= -1785.63020219784     Delta-E=       -0.000000114987 Rises=F Damp=F
 DIIS: error= 3.40D-06 at cycle  14 NSaved=  14.
 NSaved=14 IEnMin=14 EnMin= -1785.63020219784     IErMin=14 ErrMin= 3.40D-06
 ErrMax= 3.40D-06  0.00D+00 EMaxC= 1.00D-01 BMatC= 3.43D-08 BMatP= 9.31D-08
 IDIUse=1 WtCom= 1.00D+00 WtEn= 0.00D+00
 Coeff-Com:  0.113D-03-0.153D-03 0.177D-03 0.360D-03-0.784D-03-0.807D-02
 Coeff-Com:  0.441D-03 0.160D-01 0.169D-01-0.261D-01-0.742D-01-0.101D+00
 Coeff-Com:  0.345D+00 0.831D+00
 Coeff:      0.113D-03-0.153D-03 0.177D-03 0.360D-03-0.784D-03-0.807D-02
 Coeff:      0.441D-03 0.160D-01 0.169D-01-0.261D-01-0.742D-01-0.101D+00
 Coeff:      0.345D+00 0.831D+00
 Gap=     0.329 Goal=   None    Shift=    0.000
 Gap=     0.097 Goal=   None    Shift=    0.000
 RMSDP=7.70D-07 MaxDP=3.55D-05 DE=-1.15D-07 OVMax= 3.73D-04

 Cycle  15  Pass 1  IDiag  1:
 RMSU=  2.92D-07    CP:  1.00D+00  2.53D+00  8.53D-01  7.65D-01  1.23D+00
                    CP:  2.05D+00  2.54D+00  2.34D+00  1.64D+00  1.86D+00
                    CP:  1.77D+00  2.31D+00  1.92D+00  1.70D+00
 E= -1785.63020225012     Delta-E=       -0.000000052281 Rises=F Damp=F
 DIIS: error= 3.18D-06 at cycle  15 NSaved=  15.
 NSaved=15 IEnMin=15 EnMin= -1785.63020225012     IErMin=15 ErrMin= 3.18D-06
 ErrMax= 3.18D-06  0.00D+00 EMaxC= 1.00D-01 BMatC= 2.02D-08 BMatP= 3.43D-08
 IDIUse=1 WtCom= 1.00D+00 WtEn= 0.00D+00
 Coeff-Com:  0.377D-04-0.516D-04 0.123D-03 0.194D-03 0.436D-03-0.189D-02
 Coeff-Com: -0.111D-02-0.241D-02 0.109D-01 0.173D-01 0.364D-02-0.142D+00
 Coeff-Com:  0.186D-01 0.351D+00 0.746D+00
 Coeff:      0.377D-04-0.516D-04 0.123D-03 0.194D-03 0.436D-03-0.189D-02
 Coeff:     -0.111D-02-0.241D-02 0.109D-01 0.173D-01 0.364D-02-0.142D+00
 Coeff:      0.186D-01 0.351D+00 0.746D+00
 Gap=     0.329 Goal=   None    Shift=    0.000
 Gap=     0.097 Goal=   None    Shift=    0.000
 RMSDP=6.01D-07 MaxDP=2.48D-05 DE=-5.23D-08 OVMax= 3.36D-04

 Cycle  16  Pass 1  IDiag  1:
 RMSU=  1.60D-07    CP:  1.00D+00  2.53D+00  8.52D-01  7.65D-01  1.23D+00
                    CP:  2.05D+00  2.54D+00  2.35D+00  1.64D+00  1.87D+00
                    CP:  1.80D+00  2.44D+00  2.30D+00  2.47D+00  1.74D+00
 E= -1785.63020228782     Delta-E=       -0.000000037696 Rises=F Damp=F
 DIIS: error= 2.99D-06 at cycle  16 NSaved=  16.
 NSaved=16 IEnMin=16 EnMin= -1785.63020228782     IErMin=16 ErrMin= 2.99D-06
 ErrMax= 2.99D-06  0.00D+00 EMaxC= 1.00D-01 BMatC= 1.88D-08 BMatP= 2.02D-08
 IDIUse=1 WtCom= 1.00D+00 WtEn= 0.00D+00
 Coeff-Com:  0.144D-04-0.202D-04 0.646D-04 0.605D-04 0.495D-03-0.405D-03
 Coeff-Com:  0.821D-04-0.509D-02 0.694D-02 0.118D-01 0.157D-01-0.804D-01
 Coeff-Com: -0.221D-01 0.610D-01 0.494D+00 0.518D+00
 Coeff:      0.144D-04-0.202D-04 0.646D-04 0.605D-04 0.495D-03-0.405D-03
 Coeff:      0.821D-04-0.509D-02 0.694D-02 0.118D-01 0.157D-01-0.804D-01
 Coeff:     -0.221D-01 0.610D-01 0.494D+00 0.518D+00
 Gap=     0.328 Goal=   None    Shift=    0.000
 Gap=     0.097 Goal=   None    Shift=    0.000
 RMSDP=4.29D-07 MaxDP=1.86D-05 DE=-3.77D-08 OVMax= 2.45D-04

 Cycle  17  Pass 1  IDiag  1:
 RMSU=  5.45D-08    CP:  1.00D+00  2.53D+00  8.52D-01  7.65D-01  1.23D+00
                    CP:  2.05D+00  2.54D+00  2.35D+00  1.64D+00  1.88D+00
                    CP:  1.82D+00  2.52D+00  2.55D+00  3.00D+00  2.43D+00
                    CP:  1.58D+00
 E= -1785.63020231523     Delta-E=       -0.000000027410 Rises=F Damp=F
 DIIS: error= 3.14D-06 at cycle  17 NSaved=  17.
 NSaved=17 IEnMin=17 EnMin= -1785.63020231523     IErMin=16 ErrMin= 2.99D-06
 ErrMax= 3.14D-06  0.00D+00 EMaxC= 1.00D-01 BMatC= 1.83D-08 BMatP= 1.88D-08
 IDIUse=1 WtCom= 1.00D+00 WtEn= 0.00D+00
 Coeff-Com:  0.134D-04-0.187D-04 0.683D-04 0.657D-04 0.537D-03-0.301D-03
 Coeff-Com: -0.697D-04-0.548D-02 0.703D-02 0.138D-01 0.172D-01-0.873D-01
 Coeff-Com: -0.310D-01 0.682D-01 0.542D+00 0.663D+00-0.188D+00
 Coeff:      0.134D-04-0.187D-04 0.683D-04 0.657D-04 0.537D-03-0.301D-03
 Coeff:     -0.697D-04-0.548D-02 0.703D-02 0.138D-01 0.172D-01-0.873D-01
 Coeff:     -0.310D-01 0.682D-01 0.542D+00 0.663D+00-0.188D+00
 Gap=     0.328 Goal=   None    Shift=    0.000
 Gap=     0.097 Goal=   None    Shift=    0.000
 RMSDP=9.66D-08 MaxDP=4.27D-06 DE=-2.74D-08 OVMax= 5.59D-05

 Cycle  18  Pass 1  IDiag  1:
 RMSU=  9.70D-09    CP:  1.00D+00  2.53D+00  8.52D-01  7.65D-01  1.23D+00
                    CP:  2.05D+00  2.54D+00  2.35D+00  1.64D+00  1.88D+00
                    CP:  1.81D+00  2.50D+00  2.50D+00  2.90D+00  2.27D+00
                    CP:  1.41D+00  7.56D-01
 E= -1785.63020230912     Delta-E=        0.000000006114 Rises=F Damp=F
 DIIS: error= 3.12D-06 at cycle  18 NSaved=  18.
 NSaved=18 IEnMin=17 EnMin= -1785.63020231523     IErMin=16 ErrMin= 2.99D-06
 ErrMax= 3.12D-06  0.00D+00 EMaxC= 1.00D-01 BMatC= 1.81D-08 BMatP= 1.83D-08
 IDIUse=1 WtCom= 1.00D+00 WtEn= 0.00D+00
 Large coefficients: NSaved= 18 BigCof=   28.48 CofMax=   10.00 Det=-2.23D-12
 Inversion failed.  Reducing to 17 matrices.
 Large coefficients: NSaved= 17 BigCof=   26.35 CofMax=   10.00 Det=-2.51D-12
 Inversion failed.  Reducing to 16 matrices.
 Large coefficients: NSaved= 16 BigCof=   25.87 CofMax=   10.00 Det=-2.56D-12
 Inversion failed.  Reducing to 15 matrices.
 Large coefficients: NSaved= 15 BigCof=   24.89 CofMax=   10.00 Det=-2.61D-12
 Inversion failed.  Reducing to 14 matrices.
 Large coefficients: NSaved= 14 BigCof=   25.19 CofMax=   10.00 Det=-2.61D-12
 Inversion failed.  Reducing to 13 matrices.
 Large coefficients: NSaved= 13 BigCof=   23.00 CofMax=   10.00 Det=-2.67D-12
 Inversion failed.  Reducing to 12 matrices.
 Large coefficients: NSaved= 12 BigCof=   22.51 CofMax=   10.00 Det=-2.67D-12
 Inversion failed.  Reducing to 11 matrices.
 Large coefficients: NSaved= 11 BigCof=   23.31 CofMax=   10.00 Det=-2.69D-12
 Inversion failed.  Reducing to 10 matrices.
 Large coefficients: NSaved= 10 BigCof=   24.98 CofMax=   10.00 Det=-2.75D-12
 Inversion failed.  Reducing to  9 matrices.
 Large coefficients: NSaved=  9 BigCof=   28.97 CofMax=   10.00 Det=-3.05D-12
 Inversion failed.  Reducing to  8 matrices.
 Large coefficients: NSaved=  8 BigCof=   29.10 CofMax=   10.00 Det=-3.05D-12
 Inversion failed.  Reducing to  7 matrices.
 Large coefficients: NSaved=  7 BigCof=   28.60 CofMax=   10.00 Det=-3.07D-12
 Inversion failed.  Reducing to  6 matrices.
 Large coefficients: NSaved=  6 BigCof=   28.43 CofMax=   10.00 Det=-3.44D-12
 Inversion failed.  Reducing to  5 matrices.
 Large coefficients: NSaved=  5 BigCof=   27.88 CofMax=   10.00 Det=-3.65D-12
 Inversion failed.  Reducing to  4 matrices.
 Large coefficients: NSaved=  4 BigCof=   24.17 CofMax=   10.00 Det=-4.09D-12
 Inversion failed.  Reducing to  3 matrices.
 Large coefficients: NSaved=  3 BigCof=   25.03 CofMax=   10.00 Det=-4.15D-12
 Inversion failed.  Reducing to  2 matrices.
 Large coefficients: NSaved=  2 BigCof=   16.96 CofMax=   10.00 Det=-6.71D-12
 Coeff-Com: -0.160D+02 0.170D+02
 Coeff:     -0.160D+02 0.170D+02
 Gap=     0.329 Goal=   None    Shift=    0.000
 Gap=     0.097 Goal=   None    Shift=    0.000
 RMSDP=9.65D-07 MaxDP=4.28D-05 DE= 6.11D-09 OVMax= 5.67D-04

 Cycle  19  Pass 1  IDiag  1:
 RMSU=  8.32D-08    CP:  1.00D+00  2.53D+00  8.53D-01  7.65D-01  1.23D+00
                    CP:  2.05D+00  2.54D+00  2.34D+00  1.65D+00  1.86D+00
                    CP:  1.79D+00  2.34D+00  1.98D+00  1.69D+00  6.88D-01
                    CP: -2.85D-01 -2.36D+00  1.87D+00
 E= -1785.63020225022     Delta-E=        0.000000058897 Rises=F Damp=F
 DIIS: error= 2.87D-06 at cycle  19 NSaved=   3.
 NSaved= 3 IEnMin= 1 EnMin= -1785.63020231523     IErMin= 3 ErrMin= 2.87D-06
 ErrMax= 2.87D-06  0.00D+00 EMaxC= 1.00D-01 BMatC= 1.57D-08 BMatP= 1.81D-08
 IDIUse=1 WtCom= 1.00D+00 WtEn= 0.00D+00
 Large coefficients: NSaved=  3 BigCof=   19.87 CofMax=   10.00 Det=-6.61D-12
 Inversion failed.  Reducing to  2 matrices.
 Coeff-Com:  0.411D+00 0.589D+00
 Coeff:      0.411D+00 0.589D+00
 Gap=     0.328 Goal=   None    Shift=    0.000
 Gap=     0.097 Goal=   None    Shift=    0.000
 RMSDP=1.03D-06 MaxDP=4.58D-05 DE= 5.89D-08 OVMax= 6.00D-04

 Cycle  20  Pass 1  IDiag  1:
 RMSU=  1.79D-08    CP:  1.00D+00  2.53D+00  8.52D-01  7.65D-01  1.23D+00
                    CP:  2.05D+00  2.54D+00  2.35D+00  1.64D+00  1.88D+00
                    CP:  1.82D+00  2.52D+00  2.55D+00  2.98D+00  2.41D+00
                    CP:  1.33D+00  7.82D-01  3.00D+00  3.73D-01
 E= -1785.63020231361     Delta-E=       -0.000000063385 Rises=F Damp=F
 DIIS: error= 3.29D-06 at cycle  20 NSaved=   3.
 NSaved= 3 IEnMin= 3 EnMin= -1785.63020231361     IErMin= 2 ErrMin= 2.87D-06
 ErrMax= 3.29D-06  0.00D+00 EMaxC= 1.00D-01 BMatC= 1.73D-08 BMatP= 1.57D-08
 IDIUse=1 WtCom= 1.00D+00 WtEn= 0.00D+00
 Coeff-Com: -0.425D+00 0.600D+00 0.825D+00
 Coeff:     -0.425D+00 0.600D+00 0.825D+00
 Gap=     0.328 Goal=   None    Shift=    0.000
 Gap=     0.097 Goal=   None    Shift=    0.000
 RMSDP=7.18D-08 MaxDP=4.81D-06 DE=-6.34D-08 OVMax= 3.11D-05

 Cycle  21  Pass 1  IDiag  1:
 Restarting incremental Fock formation.
 E= -1785.63020231609     Delta-E=       -0.000000002487 Rises=F Damp=F
 DIIS: error= 3.13D-06 at cycle  21 NSaved=   4.
 NSaved= 4 IEnMin= 4 EnMin= -1785.63020231609     IErMin= 2 ErrMin= 2.87D-06
 ErrMax= 3.13D-06  0.00D+00 EMaxC= 1.00D-01 BMatC= 1.92D-08 BMatP= 1.57D-08
 IDIUse=1 WtCom= 1.00D+00 WtEn= 0.00D+00
 Coeff-Com: -0.238D+01 0.666D+00 0.122D+01 0.149D+01
 Coeff:     -0.238D+01 0.666D+00 0.122D+01 0.149D+01
 Gap=     0.328 Goal=   None    Shift=    0.000
 Gap=     0.097 Goal=   None    Shift=    0.000
 RMSDP=1.65D-07 MaxDP=9.07D-06 DE=-2.49D-09 OVMax= 7.50D-05

 Cycle  22  Pass 1  IDiag  1:
 RMSU=  1.65D-07    CP:  1.00D+00
 E= -1785.63020232443     Delta-E=       -0.000000008340 Rises=F Damp=F
 DIIS: error= 3.20D-06 at cycle  22 NSaved=   5.
 NSaved= 5 IEnMin= 5 EnMin= -1785.63020232443     IErMin= 2 ErrMin= 2.87D-06
 ErrMax= 3.20D-06  0.00D+00 EMaxC= 1.00D-01 BMatC= 1.96D-08 BMatP= 1.57D-08
 IDIUse=1 WtCom= 1.00D+00 WtEn= 0.00D+00
 Coeff-Com: -0.291D+01 0.664D+00 0.141D+01 0.261D+01-0.771D+00
 Coeff:     -0.291D+01 0.664D+00 0.141D+01 0.261D+01-0.771D+00
 Gap=     0.328 Goal=   None    Shift=    0.000
 Gap=     0.097 Goal=   None    Shift=    0.000
 RMSDP=5.59D-08 MaxDP=2.65D-06 DE=-8.34D-09 OVMax= 2.67D-05

 Cycle  23  Pass 1  IDiag  1:
 RMSU=  1.36D-08    CP:  1.00D+00  6.71D-01
 E= -1785.63020232132     Delta-E=        0.000000003116 Rises=F Damp=F
 DIIS: error= 3.19D-06 at cycle  23 NSaved=   6.
 NSaved= 6 IEnMin= 5 EnMin= -1785.63020232443     IErMin= 2 ErrMin= 2.87D-06
 ErrMax= 3.19D-06  0.00D+00 EMaxC= 1.00D-01 BMatC= 2.01D-08 BMatP= 1.57D-08
 IDIUse=1 WtCom= 1.00D+00 WtEn= 0.00D+00
 Coeff-Com: -0.427D+01 0.695D+00 0.175D+01 0.441D+01-0.276D+01 0.117D+01
 Coeff:     -0.427D+01 0.695D+00 0.175D+01 0.441D+01-0.276D+01 0.117D+01
 Gap=     0.328 Goal=   None    Shift=    0.000
 Gap=     0.097 Goal=   None    Shift=    0.000
 RMSDP=6.43D-08 MaxDP=2.67D-06 DE= 3.12D-09 OVMax= 3.60D-05

 Cycle  24  Pass 1  IDiag  1:
 RMSU=  2.40D-08    CP:  1.00D+00  3.32D-01  2.50D+00
 E= -1785.63020231727     Delta-E=        0.000000004047 Rises=F Damp=F
 DIIS: error= 3.16D-06 at cycle  24 NSaved=   7.
 NSaved= 7 IEnMin= 5 EnMin= -1785.63020232443     IErMin= 2 ErrMin= 2.87D-06
 ErrMax= 3.16D-06  0.00D+00 EMaxC= 1.00D-01 BMatC= 1.98D-08 BMatP= 1.57D-08
 IDIUse=1 WtCom= 1.00D+00 WtEn= 0.00D+00
 Coeff-Com: -0.386D+01 0.669D+00 0.158D+01 0.344D+01-0.226D+01-0.463D+01
 Coeff-Com:  0.606D+01
 Coeff:     -0.386D+01 0.669D+00 0.158D+01 0.344D+01-0.226D+01-0.463D+01
 Coeff:      0.606D+01
 Gap=     0.328 Goal=   None    Shift=    0.000
 Gap=     0.097 Goal=   None    Shift=    0.000
 RMSDP=3.19D-07 MaxDP=1.35D-05 DE= 4.05D-09 OVMax= 1.83D-04

 Cycle  25  Pass 1  IDiag  1:
 RMSU=  1.49D-07    CP:  1.00D+00 -1.23D+00  3.00D+00  3.00D+00
 E= -1785.63020229725     Delta-E=        0.000000020018 Rises=F Damp=F
 DIIS: error= 3.09D-06 at cycle  25 NSaved=   8.
 NSaved= 8 IEnMin= 5 EnMin= -1785.63020232443     IErMin= 2 ErrMin= 2.87D-06
 ErrMax= 3.09D-06  0.00D+00 EMaxC= 1.00D-01 BMatC= 1.90D-08 BMatP= 1.57D-08
 IDIUse=1 WtCom= 1.00D+00 WtEn= 0.00D+00
 Large coefficients: NSaved=  8 BigCof=   26.55 CofMax=   10.00 Det=-2.05D-12
 Inversion failed.  Reducing to  7 matrices.
 Large coefficients: NSaved=  7 BigCof=   34.56 CofMax=   10.00 Det=-4.50D-12
 Inversion failed.  Reducing to  6 matrices.
 Large coefficients: NSaved=  6 BigCof=   20.12 CofMax=   10.00 Det=-4.50D-12
 Inversion failed.  Reducing to  5 matrices.
 Large coefficients: NSaved=  5 BigCof=   24.30 CofMax=   10.00 Det=-4.93D-12
 Inversion failed.  Reducing to  4 matrices.
 Large coefficients: NSaved=  4 BigCof=   19.99 CofMax=   10.00 Det=-6.17D-12
 Inversion failed.  Reducing to  3 matrices.
 Coeff-Com:  0.191D+01-0.415D+01 0.324D+01
 Coeff:      0.191D+01-0.415D+01 0.324D+01
 Gap=     0.328 Goal=   None    Shift=    0.000
 Gap=     0.097 Goal=   None    Shift=    0.000
 RMSDP=1.70D-07 MaxDP=1.18D-05 DE= 2.00D-08 OVMax= 4.92D-05

 Cycle  26  Pass 1  IDiag  1:
 RMSU=  1.25D-07    CP:  1.00D+00 -5.86D-01  3.00D+00  3.00D+00  7.09D-01
 E= -1785.63020230356     Delta-E=       -0.000000006306 Rises=F Damp=F
 DIIS: error= 3.18D-06 at cycle  26 NSaved=   4.
 NSaved= 4 IEnMin= 1 EnMin= -1785.63020232443     IErMin= 3 ErrMin= 3.09D-06
 ErrMax= 3.18D-06  0.00D+00 EMaxC= 1.00D-01 BMatC= 1.78D-08 BMatP= 1.90D-08
 IDIUse=1 WtCom= 1.00D+00 WtEn= 0.00D+00
 Coeff-Com:  0.109D+01-0.437D+01 0.371D+01 0.570D+00
 Coeff:      0.109D+01-0.437D+01 0.371D+01 0.570D+00
 Gap=     0.329 Goal=   None    Shift=    0.000
 Gap=     0.097 Goal=   None    Shift=    0.000
 RMSDP=3.77D-07 MaxDP=1.55D-05 DE=-6.31D-09 OVMax= 1.93D-04

 Cycle  27  Pass 1  IDiag  1:
 RMSU=  5.68D-08    CP:  1.00D+00 -2.34D+00  3.00D+00  3.00D+00  2.15D+00
                    CP:  2.20D-01
 E= -1785.63020228146     Delta-E=        0.000000022096 Rises=F Damp=F
 DIIS: error= 3.06D-06 at cycle  27 NSaved=   5.
 NSaved= 5 IEnMin= 1 EnMin= -1785.63020232443     IErMin= 5 ErrMin= 3.06D-06
 ErrMax= 3.06D-06  0.00D+00 EMaxC= 1.00D-01 BMatC= 1.82D-08 BMatP= 1.78D-08
 IDIUse=1 WtCom= 1.00D+00 WtEn= 0.00D+00
 Coeff-Com:  0.107D+00-0.747D+01 0.582D+01 0.412D+00 0.214D+01
 Coeff:      0.107D+00-0.747D+01 0.582D+01 0.412D+00 0.214D+01
 Gap=     0.329 Goal=   None    Shift=    0.000
 Gap=     0.097 Goal=   None    Shift=    0.000
 RMSDP=2.05D-06 MaxDP=8.70D-05 DE= 2.21D-08 OVMax= 1.18D-03

 Cycle  28  Pass 1  IDiag  1:
 RMSU=  1.87D-06    CP:  1.00D+00 -3.00D+00  3.00D+00  3.00D+00  3.00D+00
                    CP:  9.05D-01  3.00D+00
 E= -1785.63020216336     Delta-E=        0.000000118102 Rises=F Damp=F
 DIIS: error= 2.83D-06 at cycle  28 NSaved=   6.
 NSaved= 6 IEnMin= 1 EnMin= -1785.63020232443     IErMin= 6 ErrMin= 2.83D-06
 ErrMax= 2.83D-06  0.00D+00 EMaxC= 1.00D-01 BMatC= 1.41D-08 BMatP= 1.78D-08
 IDIUse=1 WtCom= 1.00D+00 WtEn= 0.00D+00
 Coeff-Com:  0.721D+00-0.698D+01 0.453D+01 0.282D+00 0.174D+01 0.714D+00
 Coeff:      0.721D+00-0.698D+01 0.453D+01 0.282D+00 0.174D+01 0.714D+00
 Gap=     0.329 Goal=   None    Shift=    0.000
 Gap=     0.097 Goal=   None    Shift=    0.000
 RMSDP=1.19D-06 MaxDP=5.16D-05 DE= 1.18D-07 OVMax= 6.92D-04

 Cycle  29  Pass 1  IDiag  1:
 RMSU=  1.10D-07    CP:  1.00D+00 -3.00D+00  3.00D+00  3.00D+00  3.00D+00
                    CP:  1.26D+00  3.00D+00  1.63D+00
 E= -1785.63020210319     Delta-E=        0.000000060172 Rises=F Damp=F
 DIIS: error= 2.85D-06 at cycle  29 NSaved=   7.
 NSaved= 7 IEnMin= 1 EnMin= -1785.63020232443     IErMin= 6 ErrMin= 2.83D-06
 ErrMax= 2.85D-06  0.00D+00 EMaxC= 1.00D-01 BMatC= 1.08D-08 BMatP= 1.41D-08
 IDIUse=1 WtCom= 1.00D+00 WtEn= 0.00D+00
 Coeff-Com:  0.549D+01 0.481D+01-0.834D+01-0.585D-01-0.442D+01-0.522D+00
 Coeff-Com:  0.403D+01
 Coeff:      0.549D+01 0.481D+01-0.834D+01-0.585D-01-0.442D+01-0.522D+00
 Coeff:      0.403D+01
 Gap=     0.329 Goal=   None    Shift=    0.000
 Gap=     0.097 Goal=   None    Shift=    0.000
 RMSDP=4.13D-06 MaxDP=1.80D-04 DE= 6.02D-08 OVMax= 2.39D-03

 Cycle  30  Pass 1  IDiag  1:
 RMSU=  1.58D-06    CP:  1.00D+00 -3.00D+00  3.00D+00  3.00D+00  3.00D+00
                    CP:  2.30D+00  3.00D+00  3.00D+00  3.00D+00
 E= -1785.63020194661     Delta-E=        0.000000156574 Rises=F Damp=F
 DIIS: error= 1.98D-06 at cycle  30 NSaved=   8.
 NSaved= 8 IEnMin= 1 EnMin= -1785.63020232443     IErMin= 8 ErrMin= 1.98D-06
 ErrMax= 1.98D-06  0.00D+00 EMaxC= 1.00D-01 BMatC= 6.57D-09 BMatP= 1.08D-08
 IDIUse=1 WtCom= 1.00D+00 WtEn= 0.00D+00
 Coeff-Com:  0.255D+01 0.643D+01-0.660D+01 0.680D-02-0.389D+01-0.147D+01
 Coeff-Com:  0.298D+01 0.101D+01
 Coeff:      0.255D+01 0.643D+01-0.660D+01 0.680D-02-0.389D+01-0.147D+01
 Coeff:      0.298D+01 0.101D+01
 Gap=     0.329 Goal=   None    Shift=    0.000
 Gap=     0.097 Goal=   None    Shift=    0.000
 RMSDP=2.77D-06 MaxDP=1.22D-04 DE= 1.57D-07 OVMax= 1.61D-03

 Cycle  31  Pass 1  IDiag  1:
 RMSU=  4.16D-07    CP:  1.00D+00 -3.00D+00  3.00D+00  3.00D+00  3.00D+00
                    CP:  2.85D+00  3.00D+00  3.00D+00  3.00D+00  2.74D+00
 E= -1785.63020188362     Delta-E=        0.000000062988 Rises=F Damp=F
 DIIS: error= 1.21D-06 at cycle  31 NSaved=   9.
 NSaved= 9 IEnMin= 1 EnMin= -1785.63020232443     IErMin= 9 ErrMin= 1.21D-06
 ErrMax= 1.21D-06  0.00D+00 EMaxC= 1.00D-01 BMatC= 2.89D-09 BMatP= 6.57D-09
 IDIUse=1 WtCom= 1.00D+00 WtEn= 0.00D+00
 Coeff-Com: -0.582D+01-0.278D+01 0.763D+01 0.244D+00 0.281D+01-0.772D+00
 Coeff-Com: -0.225D+01 0.418D+00 0.153D+01
 Coeff:     -0.582D+01-0.278D+01 0.763D+01 0.244D+00 0.281D+01-0.772D+00
 Coeff:     -0.225D+01 0.418D+00 0.153D+01
 Gap=     0.329 Goal=   None    Shift=    0.000
 Gap=     0.097 Goal=   None    Shift=    0.000
 RMSDP=3.11D-06 MaxDP=1.38D-04 DE= 6.30D-08 OVMax= 1.80D-03

 Cycle  32  Pass 1  IDiag  1:
 RMSU=  2.64D-06    CP:  1.00D+00 -3.00D+00  3.00D+00  3.00D+00  3.00D+00
                    CP:  3.00D+00  3.00D+00  3.00D+00  3.00D+00  3.00D+00
                    CP:  2.27D+00
 E= -1785.63020185302     Delta-E=        0.000000030604 Rises=F Damp=F
 DIIS: error= 4.18D-07 at cycle  32 NSaved=  10.
 NSaved=10 IEnMin= 1 EnMin= -1785.63020232443     IErMin=10 ErrMin= 4.18D-07
 ErrMax= 4.18D-07  0.00D+00 EMaxC= 1.00D-01 BMatC= 5.21D-10 BMatP= 2.89D-09
 IDIUse=1 WtCom= 1.00D+00 WtEn= 0.00D+00
 Coeff-Com: -0.394D+01-0.318D+01 0.595D+01 0.138D+00 0.253D+01-0.280D-01
 Coeff-Com: -0.187D+01-0.116D+00 0.689D+00 0.833D+00
 Coeff:     -0.394D+01-0.318D+01 0.595D+01 0.138D+00 0.253D+01-0.280D-01
 Coeff:     -0.187D+01-0.116D+00 0.689D+00 0.833D+00
 Gap=     0.329 Goal=   None    Shift=    0.000
 Gap=     0.097 Goal=   None    Shift=    0.000
 RMSDP=7.26D-07 MaxDP=3.23D-05 DE= 3.06D-08 OVMax= 4.19D-04

 Cycle  33  Pass 1  IDiag  1:
 RMSU=  4.61D-08    CP:  1.00D+00 -3.00D+00  3.00D+00  3.00D+00  3.00D+00
                    CP:  3.00D+00  3.00D+00  3.00D+00  3.00D+00  3.00D+00
                    CP:  2.63D+00  1.27D+00
 E= -1785.63020185177     Delta-E=        0.000000001249 Rises=F Damp=F
 DIIS: error= 1.42D-07 at cycle  33 NSaved=  11.
 NSaved=11 IEnMin= 1 EnMin= -1785.63020232443     IErMin=11 ErrMin= 1.42D-07
 ErrMax= 1.42D-07  0.00D+00 EMaxC= 1.00D-01 BMatC= 7.31D-11 BMatP= 5.21D-10
 IDIUse=1 WtCom= 1.00D+00 WtEn= 0.00D+00
 Coeff-Com: -0.131D+00-0.512D+00 0.461D+00 0.137D-02 0.292D+00 0.885D-01
 Coeff-Com: -0.186D+00-0.812D-01-0.386D-01 0.222D+00 0.885D+00
 Coeff:     -0.131D+00-0.512D+00 0.461D+00 0.137D-02 0.292D+00 0.885D-01
 Coeff:     -0.186D+00-0.812D-01-0.386D-01 0.222D+00 0.885D+00
 Gap=     0.329 Goal=   None    Shift=    0.000
 Gap=     0.097 Goal=   None    Shift=    0.000
 RMSDP=1.87D-07 MaxDP=8.15D-06 DE= 1.25D-09 OVMax= 1.08D-04

 Cycle  34  Pass 1  IDiag  1:
 RMSU=  1.72D-08    CP:  1.00D+00 -3.00D+00  3.00D+00  3.00D+00  3.00D+00
                    CP:  3.00D+00  3.00D+00  3.00D+00  3.00D+00  3.00D+00
                    CP:  2.69D+00  1.34D+00  1.15D+00
 E= -1785.63020185178     Delta-E=       -0.000000000004 Rises=F Damp=F
 DIIS: error= 1.25D-07 at cycle  34 NSaved=  12.
 NSaved=12 IEnMin= 1 EnMin= -1785.63020232443     IErMin=12 ErrMin= 1.25D-07
 ErrMax= 1.25D-07  0.00D+00 EMaxC= 1.00D-01 BMatC= 2.49D-11 BMatP= 7.31D-11
 IDIUse=1 WtCom= 1.00D+00 WtEn= 0.00D+00
 Coeff-Com:  0.144D+01 0.715D+00-0.184D+01-0.452D-01-0.735D+00 0.398D-01
 Coeff-Com:  0.567D+00 0.151D-01-0.254D+00-0.200D+00 0.322D+00 0.969D+00
 Coeff:      0.144D+01 0.715D+00-0.184D+01-0.452D-01-0.735D+00 0.398D-01
 Coeff:      0.567D+00 0.151D-01-0.254D+00-0.200D+00 0.322D+00 0.969D+00
 Gap=     0.329 Goal=   None    Shift=    0.000
 Gap=     0.097 Goal=   None    Shift=    0.000
 RMSDP=6.65D-08 MaxDP=3.18D-06 DE=-3.64D-12 OVMax= 3.75D-05

 Cycle  35  Pass 1  IDiag  1:
 RMSU=  9.45D-09    CP:  1.00D+00 -3.00D+00  3.00D+00  3.00D+00  3.00D+00
                    CP:  3.00D+00  3.00D+00  3.00D+00  3.00D+00  3.00D+00
                    CP:  2.64D+00  1.32D+00  1.37D+00  1.65D+00
 E= -1785.63020185180     Delta-E=       -0.000000000026 Rises=F Damp=F
 DIIS: error= 5.19D-08 at cycle  35 NSaved=  13.
 NSaved=13 IEnMin= 1 EnMin= -1785.63020232443     IErMin=13 ErrMin= 5.19D-08
 ErrMax= 5.19D-08  0.00D+00 EMaxC= 1.00D-01 BMatC= 7.83D-12 BMatP= 2.49D-11
 IDIUse=1 WtCom= 1.00D+00 WtEn= 0.00D+00
 Coeff-Com:  0.711D+00 0.360D+00-0.899D+00-0.240D-01-0.379D+00-0.118D-02
 Coeff-Com:  0.287D+00 0.227D-01-0.105D+00-0.131D+00-0.291D-01 0.432D+00
 Coeff-Com:  0.754D+00
 Coeff:      0.711D+00 0.360D+00-0.899D+00-0.240D-01-0.379D+00-0.118D-02
 Coeff:      0.287D+00 0.227D-01-0.105D+00-0.131D+00-0.291D-01 0.432D+00
 Coeff:      0.754D+00
 Gap=     0.329 Goal=   None    Shift=    0.000
 Gap=     0.097 Goal=   None    Shift=    0.000
 RMSDP=8.74D-08 MaxDP=3.81D-06 DE=-2.64D-11 OVMax= 5.09D-05

 Cycle  36  Pass 1  IDiag  1:
 RMSU=  6.33D-09    CP:  1.00D+00 -3.00D+00  3.00D+00  3.00D+00  3.00D+00
                    CP:  3.00D+00  3.00D+00  3.00D+00  3.00D+00  3.00D+00
                    CP:  2.67D+00  1.35D+00  1.34D+00  1.95D+00  1.14D+00
 E= -1785.63020185175     Delta-E=        0.000000000050 Rises=F Damp=F
 DIIS: error= 2.97D-08 at cycle  36 NSaved=  14.
 NSaved=14 IEnMin= 1 EnMin= -1785.63020232443     IErMin=14 ErrMin= 2.97D-08
 ErrMax= 2.97D-08  0.00D+00 EMaxC= 1.00D-01 BMatC= 1.69D-12 BMatP= 7.83D-12
 IDIUse=1 WtCom= 1.00D+00 WtEn= 0.00D+00
 Coeff-Com: -0.255D+00-0.129D+00 0.335D+00 0.924D-02 0.127D+00-0.149D-01
 Coeff-Com: -0.990D-01 0.200D-02 0.497D-01 0.296D-01-0.101D+00-0.199D+00
 Coeff-Com:  0.182D+00 0.106D+01
 Coeff:     -0.255D+00-0.129D+00 0.335D+00 0.924D-02 0.127D+00-0.149D-01
 Coeff:     -0.990D-01 0.200D-02 0.497D-01 0.296D-01-0.101D+00-0.199D+00
 Coeff:      0.182D+00 0.106D+01
 Gap=     0.329 Goal=   None    Shift=    0.000
 Gap=     0.097 Goal=   None    Shift=    0.000
 RMSDP=5.29D-08 MaxDP=2.34D-06 DE= 5.00D-11 OVMax= 3.09D-05

 Cycle  37  Pass 1  IDiag  1:
 RMSU=  3.16D-09    CP:  1.00D+00 -3.00D+00  3.00D+00  3.00D+00  3.00D+00
                    CP:  3.00D+00  3.00D+00  3.00D+00  3.00D+00  3.00D+00
                    CP:  2.64D+00  1.33D+00  1.41D+00  2.12D+00  1.38D+00
                    CP:  9.70D-01
 E= -1785.63020185176     Delta-E=       -0.000000000004 Rises=F Damp=F
 DIIS: error= 1.47D-08 at cycle  37 NSaved=  15.
 NSaved=15 IEnMin= 1 EnMin= -1785.63020232443     IErMin=15 ErrMin= 1.47D-08
 ErrMax= 1.47D-08  0.00D+00 EMaxC= 1.00D-01 BMatC= 6.35D-13 BMatP= 1.69D-12
 IDIUse=1 WtCom= 1.00D+00 WtEn= 0.00D+00
 Coeff-Com: -0.327D+00-0.155D+00 0.407D+00 0.978D-02 0.167D+00-0.513D-02
 Coeff-Com: -0.127D+00-0.547D-02 0.524D-01 0.523D-01-0.367D-01-0.211D+00
 Coeff-Com: -0.142D+00 0.436D+00 0.887D+00
 Coeff:     -0.327D+00-0.155D+00 0.407D+00 0.978D-02 0.167D+00-0.513D-02
 Coeff:     -0.127D+00-0.547D-02 0.524D-01 0.523D-01-0.367D-01-0.211D+00
 Coeff:     -0.142D+00 0.436D+00 0.887D+00
 Gap=     0.329 Goal=   None    Shift=    0.000
 Gap=     0.097 Goal=   None    Shift=    0.000
 RMSDP=3.47D-08 MaxDP=1.53D-06 DE=-3.64D-12 OVMax= 2.03D-05

 Cycle  38  Pass 1  IDiag  1:
 RMSU=  1.25D-09    CP:  1.00D+00 -3.00D+00  3.00D+00  3.00D+00  3.00D+00
                    CP:  3.00D+00  3.00D+00  3.00D+00  3.00D+00  3.00D+00
                    CP:  2.66D+00  1.34D+00  1.39D+00  2.18D+00  1.46D+00
                    CP:  1.34D+00  1.30D+00
 E= -1785.63020185183     Delta-E=       -0.000000000076 Rises=F Damp=F
 DIIS: error= 7.03D-09 at cycle  38 NSaved=  16.
 NSaved=16 IEnMin= 1 EnMin= -1785.63020232443     IErMin=16 ErrMin= 7.03D-09
 ErrMax= 7.03D-09  0.00D+00 EMaxC= 1.00D-01 BMatC= 1.70D-13 BMatP= 6.35D-13
 IDIUse=1 WtCom= 1.00D+00 WtEn= 0.00D+00
 Coeff-Com: -0.692D-01-0.193D-01 0.737D-01 0.218D-02 0.311D-01 0.161D-02
 Coeff-Com: -0.246D-01-0.236D-02 0.826D-02 0.122D-01 0.672D-02-0.367D-01
 Coeff-Com: -0.847D-01-0.576D-01 0.357D+00 0.802D+00
 Coeff:     -0.692D-01-0.193D-01 0.737D-01 0.218D-02 0.311D-01 0.161D-02
 Coeff:     -0.246D-01-0.236D-02 0.826D-02 0.122D-01 0.672D-02-0.367D-01
 Coeff:     -0.847D-01-0.576D-01 0.357D+00 0.802D+00
 Gap=     0.329 Goal=   None    Shift=    0.000
 Gap=     0.097 Goal=   None    Shift=    0.000
 RMSDP=1.27D-08 MaxDP=5.47D-07 DE=-7.64D-11 OVMax= 7.40D-06

 Cycle  39  Pass 1  IDiag  1:
 RMSU=  5.50D-10    CP:  1.00D+00 -3.00D+00  3.00D+00  3.00D+00  3.00D+00
                    CP:  3.00D+00  3.00D+00  3.00D+00  3.00D+00  3.00D+00
                    CP:  2.65D+00  1.34D+00  1.40D+00  2.19D+00  1.50D+00
                    CP:  1.29D+00  1.59D+00  1.16D+00
 E= -1785.63020185179     Delta-E=        0.000000000041 Rises=F Damp=F
 DIIS: error= 4.29D-09 at cycle  39 NSaved=  17.
 NSaved=17 IEnMin= 1 EnMin= -1785.63020232443     IErMin=17 ErrMin= 4.29D-09
 ErrMax= 4.29D-09  0.00D+00 EMaxC= 1.00D-01 BMatC= 3.25D-14 BMatP= 1.70D-13
 IDIUse=1 WtCom= 1.00D+00 WtEn= 0.00D+00
 Coeff-Com:  0.123D+00 0.709D-01-0.165D+00-0.403D-02-0.666D-01 0.329D-02
 Coeff-Com:  0.503D-01 0.162D-02-0.203D-01-0.211D-01 0.136D-01 0.866D-01
 Coeff-Com:  0.522D-01-0.198D+00-0.339D+00 0.107D+00 0.130D+01
 Coeff:      0.123D+00 0.709D-01-0.165D+00-0.403D-02-0.666D-01 0.329D-02
 Coeff:      0.503D-01 0.162D-02-0.203D-01-0.211D-01 0.136D-01 0.866D-01
 Coeff:      0.522D-01-0.198D+00-0.339D+00 0.107D+00 0.130D+01
 Gap=     0.329 Goal=   None    Shift=    0.000
 Gap=     0.097 Goal=   None    Shift=    0.000
 RMSDP=2.17D-09 MaxDP=9.80D-08 DE= 4.09D-11 OVMax= 1.12D-06

 Error on total polarization charges =  0.00268
 SCF Done:  E(UCAM-B3LYP) =  -1785.63020185     A.U. after   39 cycles
            NFock= 39  Conv=0.22D-08     -V/T= 2.0078
 <Sx>= 0.0000 <Sy>= 0.0000 <Sz>= 0.5000 <S**2>= 0.7845 S= 0.5171
 <L.S>= 0.000000000000E+00
 KE= 1.771807287936D+03 PE=-1.033616291980D+04 EE= 3.701485366674D+03
 Annihilation of the first spin contaminant:
 S**2 before annihilation     0.7845,   after     0.7506
 Leave Link  502 at Sun Mar  3 18:00:01 2024, MaxMem=  5368709120 cpu:      2120.5
 (Enter /home/k0335/k033513/app/g09/l601.exe)
 Copying SCF densities to generalized density rwf, IOpCl= 1 IROHF=0.

 **********************************************************************

            Population analysis using the SCF density.

 **********************************************************************

 Alpha  occ. eigenvalues --  -24.86006 -24.85927 -24.85455 -24.85386 -24.85212
 Alpha  occ. eigenvalues --  -24.85203 -24.84928 -24.84686 -24.84460 -19.35449
 Alpha  occ. eigenvalues --  -19.30903 -19.30706 -19.30422 -14.61340 -14.60301
 Alpha  occ. eigenvalues --  -14.57725 -10.61569 -10.57311 -10.56773 -10.52105
 Alpha  occ. eigenvalues --  -10.52067 -10.52019 -10.51582 -10.41692 -10.40153
 Alpha  occ. eigenvalues --  -10.37277 -10.35707  -1.45100  -1.43627  -1.41942
 Alpha  occ. eigenvalues --   -1.37852  -1.35348  -1.35194  -1.34951  -1.34088
 Alpha  occ. eigenvalues --   -1.33828  -1.29207  -1.24036  -1.23629  -1.22851
 Alpha  occ. eigenvalues --   -1.15872  -1.14810  -1.13694  -0.97531  -0.95699
 Alpha  occ. eigenvalues --   -0.94645  -0.89116  -0.86367  -0.85641  -0.84304
 Alpha  occ. eigenvalues --   -0.81225  -0.79969  -0.77845  -0.75532  -0.75074
 Alpha  occ. eigenvalues --   -0.74653  -0.72504  -0.71834  -0.70450  -0.70323
 Alpha  occ. eigenvalues --   -0.69565  -0.69020  -0.68039  -0.67448  -0.66764
 Alpha  occ. eigenvalues --   -0.65458  -0.62507  -0.62037  -0.61351  -0.60647
 Alpha  occ. eigenvalues --   -0.59991  -0.59927  -0.59044  -0.58880  -0.58630
 Alpha  occ. eigenvalues --   -0.58248  -0.57999  -0.57623  -0.57394  -0.57033
 Alpha  occ. eigenvalues --   -0.56036  -0.55694  -0.54771  -0.54435  -0.54057
 Alpha  occ. eigenvalues --   -0.53773  -0.53215  -0.52635  -0.52585  -0.52150
 Alpha  occ. eigenvalues --   -0.51741  -0.51138  -0.50797  -0.50104  -0.48957
 Alpha  occ. eigenvalues --   -0.48137  -0.47039  -0.45749  -0.44695  -0.43436
 Alpha  occ. eigenvalues --   -0.42266  -0.41377  -0.39888
 Alpha virt. eigenvalues --   -0.06948  -0.06054  -0.04011   0.00591   0.02835
 Alpha virt. eigenvalues --    0.05628   0.06914   0.09705   0.09940   0.11351
 Alpha virt. eigenvalues --    0.12472   0.14488   0.14760   0.15611   0.15999
 Alpha virt. eigenvalues --    0.16375   0.17388   0.18344   0.19322   0.19690
 Alpha virt. eigenvalues --    0.20668   0.20968   0.22668   0.23214   0.24171
 Alpha virt. eigenvalues --    0.24512   0.25378   0.26494   0.28092   0.29037
 Alpha virt. eigenvalues --    0.30572   0.31459   0.32881   0.33909   0.34659
 Alpha virt. eigenvalues --    0.36000   0.36701   0.41992   0.42814   0.45555
 Alpha virt. eigenvalues --    0.46509   0.47002   0.47613   0.48388   0.49665
 Alpha virt. eigenvalues --    0.49926   0.50594   0.51821   0.52190   0.53991
 Alpha virt. eigenvalues --    0.54176   0.54559   0.55165   0.55905   0.57354
 Alpha virt. eigenvalues --    0.58421   0.58801   0.59057   0.60121   0.61852
 Alpha virt. eigenvalues --    0.62811   0.64455   0.64904   0.66017   0.67572
 Alpha virt. eigenvalues --    0.67725   0.71261   0.72934   0.75431   0.75862
 Alpha virt. eigenvalues --    0.77448   0.78253   0.80219   0.80592   0.81444
 Alpha virt. eigenvalues --    0.82045   0.82426   0.83567   0.84167   0.85649
 Alpha virt. eigenvalues --    0.87495   0.88680   0.89029   0.91629   0.91880
 Alpha virt. eigenvalues --    0.93597   0.94019   0.95363   0.95909   0.97113
 Alpha virt. eigenvalues --    0.99470   1.00307   1.00790   1.03102   1.04511
 Alpha virt. eigenvalues --    1.05090   1.05229   1.06661   1.07195   1.07413
 Alpha virt. eigenvalues --    1.09456   1.11011   1.11324   1.12299   1.13720
 Alpha virt. eigenvalues --    1.14846   1.15519   1.15779   1.17209   1.18290
 Alpha virt. eigenvalues --    1.20188   1.20554   1.21830   1.22742   1.24011
 Alpha virt. eigenvalues --    1.24304   1.26212   1.27113   1.27682   1.28641
 Alpha virt. eigenvalues --    1.29635   1.31668   1.32450   1.32622   1.33585
 Alpha virt. eigenvalues --    1.34234   1.34620   1.35455   1.35825   1.36198
 Alpha virt. eigenvalues --    1.37798   1.37854   1.38502   1.39686   1.41033
 Alpha virt. eigenvalues --    1.41424   1.42870   1.43577   1.43872   1.44065
 Alpha virt. eigenvalues --    1.45029   1.46245   1.46852   1.47640   1.48740
 Alpha virt. eigenvalues --    1.49363   1.50689   1.51604   1.53727   1.54381
 Alpha virt. eigenvalues --    1.55581   1.57013   1.57692   1.59392   1.60421
 Alpha virt. eigenvalues --    1.63459   1.64499   1.67732   1.68950   1.69499
 Alpha virt. eigenvalues --    1.71063   1.71505   1.71883   1.73617   1.74220
 Alpha virt. eigenvalues --    1.75422   1.75928   1.76906   1.77925   1.78752
 Alpha virt. eigenvalues --    1.78998   1.80469   1.81348   1.81472   1.82242
 Alpha virt. eigenvalues --    1.82785   1.83821   1.84114   1.84689   1.85011
 Alpha virt. eigenvalues --    1.85967   1.86353   1.86695   1.87574   1.89019
 Alpha virt. eigenvalues --    1.89409   1.90097   1.90726   1.91331   1.92204
 Alpha virt. eigenvalues --    1.93144   1.93384   1.93861   1.94757   1.95607
 Alpha virt. eigenvalues --    1.96736   1.97904   1.98537   1.98823   1.99424
 Alpha virt. eigenvalues --    1.99693   2.00689   2.01350   2.01637   2.02275
 Alpha virt. eigenvalues --    2.02720   2.03003   2.03509   2.04008   2.05977
 Alpha virt. eigenvalues --    2.06163   2.07230   2.07515   2.08290   2.09764
 Alpha virt. eigenvalues --    2.10647   2.11462   2.12303   2.13114   2.15102
 Alpha virt. eigenvalues --    2.16631   2.18344   2.18872   2.20166   2.21655
 Alpha virt. eigenvalues --    2.23062   2.24506   2.24791   2.26109   2.26351
 Alpha virt. eigenvalues --    2.28111   2.31374   2.32332   2.33554   2.34413
 Alpha virt. eigenvalues --    2.35642   2.36504   2.38720   2.39460   2.40595
 Alpha virt. eigenvalues --    2.41152   2.41771   2.42380   2.44103   2.45083
 Alpha virt. eigenvalues --    2.47729   2.48126   2.49849   2.51426   2.51938
 Alpha virt. eigenvalues --    2.54533   2.55862   2.56720   2.57521   2.57653
 Alpha virt. eigenvalues --    2.60910   2.61099   2.62456   2.63286   2.64482
 Alpha virt. eigenvalues --    2.65576   2.67828   2.69013   2.70258   2.71657
 Alpha virt. eigenvalues --    2.73956   2.75365   2.77425   2.78002   2.78038
 Alpha virt. eigenvalues --    2.80265   2.82262   2.85432   2.86777   2.88322
 Alpha virt. eigenvalues --    2.89302   2.89383   2.92284   2.93329   2.94248
 Alpha virt. eigenvalues --    2.95192   2.96484   2.98802   3.00430   3.02497
 Alpha virt. eigenvalues --    3.03016   3.04924   3.06646   3.10513   3.11622
 Alpha virt. eigenvalues --    3.13524   3.16990   3.17693   3.20743   3.25230
 Alpha virt. eigenvalues --    3.26793   3.26969   3.28665   3.30605   3.32821
 Alpha virt. eigenvalues --    3.40132   3.46043   3.50016   3.67644   3.71796
 Alpha virt. eigenvalues --    4.02990   4.07974   4.12526   4.15803   4.16825
 Alpha virt. eigenvalues --    4.17921   4.18999   4.23145   4.29338   4.35206
 Alpha virt. eigenvalues --    4.37779   4.40858   4.45619   4.47488   4.56691
 Alpha virt. eigenvalues --    4.58577   4.65832   4.71723   4.74282   4.85852
 Alpha virt. eigenvalues --    5.08815   5.26815   5.30306   5.42902   5.69428
 Alpha virt. eigenvalues --    6.21196   6.41576
  Beta  occ. eigenvalues --  -24.86006 -24.85927 -24.85454 -24.85386 -24.85212
  Beta  occ. eigenvalues --  -24.85203 -24.84927 -24.84686 -24.84460 -19.35447
  Beta  occ. eigenvalues --  -19.30761 -19.30547 -19.30510 -14.60894 -14.59919
  Beta  occ. eigenvalues --  -14.57748 -10.61569 -10.57311 -10.56772 -10.52176
  Beta  occ. eigenvalues --  -10.52138 -10.52068 -10.51583 -10.41647 -10.40161
  Beta  occ. eigenvalues --  -10.36752 -10.35264  -1.45100  -1.43627  -1.41942
  Beta  occ. eigenvalues --   -1.37850  -1.35348  -1.35194  -1.34951  -1.34088
  Beta  occ. eigenvalues --   -1.33828  -1.28930  -1.23724  -1.23603  -1.22827
  Beta  occ. eigenvalues --   -1.15571  -1.14139  -1.13485  -0.96981  -0.95295
  Beta  occ. eigenvalues --   -0.93603  -0.89060  -0.85939  -0.85107  -0.84262
  Beta  occ. eigenvalues --   -0.81098  -0.79797  -0.77729  -0.75191  -0.74936
  Beta  occ. eigenvalues --   -0.74617  -0.72495  -0.71808  -0.70439  -0.70274
  Beta  occ. eigenvalues --   -0.69395  -0.68888  -0.67613  -0.67369  -0.66330
  Beta  occ. eigenvalues --   -0.65191  -0.62332  -0.62000  -0.60485  -0.60292
  Beta  occ. eigenvalues --   -0.59865  -0.59530  -0.58862  -0.58759  -0.58368
  Beta  occ. eigenvalues --   -0.58155  -0.57802  -0.57574  -0.57341  -0.57028
  Beta  occ. eigenvalues --   -0.56001  -0.55645  -0.54724  -0.54381  -0.53876
  Beta  occ. eigenvalues --   -0.53681  -0.53093  -0.52603  -0.52407  -0.52113
  Beta  occ. eigenvalues --   -0.51729  -0.51077  -0.50796  -0.48663  -0.48343
  Beta  occ. eigenvalues --   -0.47654  -0.46849  -0.45369  -0.44596  -0.42786
  Beta  occ. eigenvalues --   -0.42018  -0.34771
  Beta virt. eigenvalues --   -0.25100  -0.06633  -0.05061  -0.02303   0.02730
  Beta virt. eigenvalues --    0.02889   0.06084   0.07703   0.09916   0.10092
  Beta virt. eigenvalues --    0.11538   0.12582   0.14568   0.15006   0.15702
  Beta virt. eigenvalues --    0.16226   0.16688   0.17483   0.18413   0.19517
  Beta virt. eigenvalues --    0.19823   0.20690   0.20977   0.22705   0.23221
  Beta virt. eigenvalues --    0.24281   0.24577   0.25383   0.26506   0.28169
  Beta virt. eigenvalues --    0.29130   0.30703   0.31522   0.33006   0.34074
  Beta virt. eigenvalues --    0.34833   0.36114   0.36809   0.42065   0.42908
  Beta virt. eigenvalues --    0.45628   0.46630   0.47069   0.47814   0.48532
  Beta virt. eigenvalues --    0.49978   0.50218   0.50759   0.51932   0.52352
  Beta virt. eigenvalues --    0.54243   0.54642   0.54977   0.55545   0.56609
  Beta virt. eigenvalues --    0.57463   0.58498   0.59081   0.59199   0.60234
  Beta virt. eigenvalues --    0.62666   0.63155   0.65008   0.65685   0.66403
  Beta virt. eigenvalues --    0.67743   0.68035   0.71321   0.73006   0.75715
  Beta virt. eigenvalues --    0.75943   0.77558   0.78565   0.80677   0.80815
  Beta virt. eigenvalues --    0.81615   0.82204   0.82566   0.83762   0.84363
  Beta virt. eigenvalues --    0.85825   0.87735   0.88901   0.89192   0.91735
  Beta virt. eigenvalues --    0.92098   0.93760   0.94225   0.95539   0.96050
  Beta virt. eigenvalues --    0.97295   0.99585   1.00371   1.00951   1.03215
  Beta virt. eigenvalues --    1.04654   1.05243   1.05378   1.06777   1.07241
  Beta virt. eigenvalues --    1.07581   1.09547   1.11178   1.11473   1.12420
  Beta virt. eigenvalues --    1.13811   1.15034   1.15666   1.15888   1.17318
  Beta virt. eigenvalues --    1.18575   1.20243   1.20795   1.22020   1.22834
  Beta virt. eigenvalues --    1.24129   1.24449   1.26248   1.27409   1.27782
  Beta virt. eigenvalues --    1.28726   1.29716   1.31809   1.32470   1.32662
  Beta virt. eigenvalues --    1.33743   1.34322   1.34940   1.35752   1.36079
  Beta virt. eigenvalues --    1.37087   1.37875   1.37975   1.38537   1.39769
  Beta virt. eigenvalues --    1.41231   1.41597   1.43084   1.43779   1.44132
  Beta virt. eigenvalues --    1.44635   1.45584   1.46685   1.47370   1.47891
  Beta virt. eigenvalues --    1.48889   1.49493   1.50835   1.51641   1.53814
  Beta virt. eigenvalues --    1.54688   1.55704   1.57057   1.57710   1.59426
  Beta virt. eigenvalues --    1.60747   1.63505   1.64645   1.67776   1.69054
  Beta virt. eigenvalues --    1.69563   1.71097   1.71593   1.71953   1.73658
  Beta virt. eigenvalues --    1.74288   1.75468   1.76037   1.77042   1.77987
  Beta virt. eigenvalues --    1.78920   1.79116   1.80568   1.81457   1.81625
  Beta virt. eigenvalues --    1.82388   1.82839   1.83946   1.84200   1.84790
  Beta virt. eigenvalues --    1.85105   1.86091   1.86558   1.86786   1.87692
  Beta virt. eigenvalues --    1.89158   1.89453   1.90340   1.90971   1.91419
  Beta virt. eigenvalues --    1.92388   1.93404   1.93904   1.94054   1.94896
  Beta virt. eigenvalues --    1.95985   1.96973   1.98118   1.98580   1.98973
  Beta virt. eigenvalues --    1.99574   1.99907   2.00861   2.01417   2.01853
  Beta virt. eigenvalues --    2.02486   2.03052   2.03143   2.03728   2.04365
  Beta virt. eigenvalues --    2.06005   2.06461   2.07258   2.07565   2.08396
  Beta virt. eigenvalues --    2.09809   2.10665   2.11460   2.12332   2.13177
  Beta virt. eigenvalues --    2.15150   2.16643   2.18399   2.19279   2.20515
  Beta virt. eigenvalues --    2.21699   2.23235   2.24670   2.24977   2.26277
  Beta virt. eigenvalues --    2.26476   2.28286   2.31565   2.32419   2.33574
  Beta virt. eigenvalues --    2.34464   2.35704   2.36611   2.38922   2.39471
  Beta virt. eigenvalues --    2.40883   2.41282   2.41857   2.42610   2.44271
  Beta virt. eigenvalues --    2.45190   2.47747   2.48428   2.50099   2.51585
  Beta virt. eigenvalues --    2.52216   2.54719   2.56278   2.56909   2.57904
  Beta virt. eigenvalues --    2.57995   2.61029   2.61567   2.62659   2.63662
  Beta virt. eigenvalues --    2.64639   2.66139   2.67877   2.69285   2.70553
  Beta virt. eigenvalues --    2.71939   2.74116   2.75540   2.77535   2.78109
  Beta virt. eigenvalues --    2.78179   2.80409   2.82294   2.85463   2.86800
  Beta virt. eigenvalues --    2.88389   2.89399   2.89439   2.92330   2.93339
  Beta virt. eigenvalues --    2.94283   2.95259   2.96476   2.98898   3.00473
  Beta virt. eigenvalues --    3.02552   3.03017   3.04928   3.06656   3.10556
  Beta virt. eigenvalues --    3.11647   3.13589   3.16994   3.17772   3.20752
  Beta virt. eigenvalues --    3.25342   3.26927   3.26981   3.28697   3.30642
  Beta virt. eigenvalues --    3.32877   3.40255   3.46291   3.50221   3.67879
  Beta virt. eigenvalues --    3.72009   4.03090   4.08252   4.12588   4.16099
[...]
    11  N   -0.642103  -0.006765
    12  C    0.765207  -0.000558
    13  F   -0.248786   0.000024
    14  F   -0.253422  -0.000024
    15  C    0.443927  -0.000252
    16  F   -0.250018   0.000193
    17  O   -0.514095   0.000388
    18  C    0.999366   0.000005
    19  F   -0.238552   0.000001
    20  F   -0.239708  -0.000001
    21  F   -0.239260   0.000033
    22  C    0.816599  -0.000043
    23  F   -0.243649   0.000000
    24  F   -0.241106   0.000001
    25  F   -0.255603  -0.000021
    26  C    0.882317  -0.038427
    27  O   -0.439564   0.077210
 Electronic spatial extent (au):  <R**2>=           8897.6197
 Charge=              1.0000 electrons
 Dipole moment (field-independent basis, Debye):
    X=             12.9744    Y=             -0.1854    Z=             -0.0308  Tot=             12.9758
 Quadrupole moment (field-independent basis, Debye-Ang):
   XX=           -109.3199   YY=           -125.1779   ZZ=           -121.7054
   XY=             -1.3414   XZ=             -3.2185   YZ=             18.7535
 Traceless Quadrupole moment (field-independent basis, Debye-Ang):
   XX=              9.4145   YY=             -6.4435   ZZ=             -2.9710
   XY=             -1.3414   XZ=             -3.2185   YZ=             18.7535
 Octapole moment (field-independent basis, Debye-Ang**2):
  XXX=            349.2948  YYY=             25.6693  ZZZ=             11.3845  XYY=            152.7086
  XXY=              7.0583  XXZ=            -25.9978  XZZ=            146.7066  YZZ=             12.1935
  YYZ=             11.3331  XYZ=             70.3494
 Hexadecapole moment (field-independent basis, Debye-Ang**3):
 XXXX=          -5946.4415 YYYY=          -1307.6953 ZZZZ=          -1905.8537 XXXY=             92.4064
 XXXZ=           -449.1184 YYYX=            119.8714 YYYZ=           -113.4736 ZZZX=           -326.6952
 ZZZY=           -117.5724 XXYY=          -1087.9098 XXZZ=          -1163.4546 YYZZ=           -421.5211
 XXYZ=            131.1808 YYXZ=            -95.9454 ZZXY=             32.1013
 N-N= 3.077240063342D+03 E-N=-1.033616292064D+04  KE= 1.771807287936D+03
                          Isotropic Fermi Contact Couplings
        Atom                 a.u.       MegaHertz       Gauss      10(-4) cm-1
     1  C(13)              0.03154      35.45549      12.65140      11.82668
     2  C(13)             -0.00820      -9.21706      -3.28888      -3.07448
     3  N(14)              0.03863      12.47998       4.45317       4.16287
     4  C(13)             -0.01054     -11.84622      -4.22703      -3.95147
     5  O(17)             -0.00753       4.56634       1.62938       1.52317
     6  N(14)              0.03296      10.64843       3.79962       3.55193
     7  C(13)             -0.00986     -11.08986      -3.95714      -3.69918
     8  C(13)              0.02752      30.94288      11.04119      10.32144
     9  C(13)             -0.00721      -8.10645      -2.89258      -2.70402
    10  O(17)              0.00596      -3.61051      -1.28832      -1.20434
    11  N(14)             -0.00281      -0.90703      -0.32365      -0.30255
    12  C(13)              0.00000      -0.00231      -0.00082      -0.00077
    13  F(19)             -0.00014      -0.58618      -0.20916      -0.19553
    14  F(19)             -0.00019      -0.81573      -0.29107      -0.27210
    15  C(13)             -0.00035      -0.39011      -0.13920      -0.13013
    16  F(19)              0.00011       0.45738       0.16320       0.15257
    17  O(17)              0.00061      -0.37195      -0.13272      -0.12407
    18  C(13)             -0.00001      -0.00755      -0.00270      -0.00252
    19  F(19)              0.00000      -0.00984      -0.00351      -0.00328
    20  F(19)              0.00000      -0.01939      -0.00692      -0.00647
    21  F(19)              0.00000      -0.01534      -0.00547      -0.00512
    22  C(13)             -0.00011      -0.12011      -0.04286      -0.04007
    23  F(19)              0.00000      -0.00168      -0.00060      -0.00056
    24  F(19)              0.00000       0.00050       0.00018       0.00017
    25  F(19)             -0.00002      -0.08213      -0.02930      -0.02739
    26  C(13)             -0.00927     -10.42054      -3.71831      -3.47592
    27  O(17)              0.00875      -5.30121      -1.89160      -1.76829
    28  H(1)              -0.00566     -25.28241      -9.02139      -8.43331
    29  H(1)              -0.00591     -26.43176      -9.43151      -8.81669
    30  H(1)              -0.00061      -2.71155      -0.96755      -0.90448
    31  H(1)               0.00008       0.35254       0.12580       0.11760
    32  H(1)              -0.00472     -21.09414      -7.52691      -7.03625
    33  H(1)              -0.00495     -22.13632      -7.89879      -7.38388
 --------------------------------------------------------
       Center         ----  Spin Dipole Couplings  ----
                      3XX-RR        3YY-RR        3ZZ-RR
 --------------------------------------------------------
     1   Atom       -0.153933      0.092370      0.061563
     2   Atom       -0.019090      0.016147      0.002943
     3   Atom       -0.222519      0.194507      0.028012
     4   Atom        0.008913     -0.001433     -0.007480
     5   Atom        0.086724     -0.025733     -0.060991
     6   Atom       -0.204491     -0.009544      0.214035
     7   Atom       -0.023028      0.005737      0.017291
     8   Atom       -0.158156      0.035786      0.122370
     9   Atom        0.018476      0.005940     -0.024416
    10   Atom       -0.098401     -0.096579      0.194979
    11   Atom        0.013444     -0.000204     -0.013240
    12   Atom        0.000298      0.000061     -0.000359
    13   Atom        0.002096     -0.002233      0.000137
    14   Atom        0.000981      0.000207     -0.001187
    15   Atom        0.001061     -0.000370     -0.000691
    16   Atom        0.002788     -0.001555     -0.001233
    17   Atom        0.000475      0.001508     -0.001983
    18   Atom        0.000680     -0.000363     -0.000318
    19   Atom        0.000388     -0.000333     -0.000056
    20   Atom        0.000635     -0.000356     -0.000279
    21   Atom        0.000525     -0.000175     -0.000349
    22   Atom        0.000771     -0.000358     -0.000413
    23   Atom        0.000807     -0.000370     -0.000436
    24   Atom        0.000652     -0.000336     -0.000316
    25   Atom        0.000378     -0.000171     -0.000207
    26   Atom        0.026687     -0.016927     -0.009760
    27   Atom       -0.116359      0.115766      0.000593
    28   Atom        0.010179      0.002441     -0.012621
    29   Atom       -0.018874      0.004622      0.014251
    30   Atom        0.009485     -0.003724     -0.005761
    31   Atom        0.004056     -0.001930     -0.002125
    32   Atom        0.017255     -0.012048     -0.005207
    33   Atom       -0.002366      0.005453     -0.003087
 --------------------------------------------------------
                        XY            XZ            YZ
 --------------------------------------------------------
     1   Atom       -0.112567      0.104412     -0.278370
     2   Atom       -0.020812     -0.000142     -0.049122
     3   Atom       -0.074154      0.052052     -0.333679
     4   Atom       -0.005389      0.007091      0.037037
     5   Atom       -0.034070      0.035795      0.126615
     6   Atom       -0.000058      0.000926     -0.272601
     7   Atom        0.001969     -0.003957     -0.005249
     8   Atom       -0.047545      0.056140     -0.241933
     9   Atom       -0.002779     -0.003890      0.016094
    10   Atom       -0.007246      0.035521     -0.047692
    11   Atom        0.007828     -0.007761      0.021600
    12   Atom        0.000349     -0.000555      0.000992
    13   Atom       -0.000510     -0.002367      0.000036
    14   Atom        0.001918     -0.000333     -0.000573
    15   Atom        0.000132     -0.000229      0.000744
    16   Atom        0.000383      0.001513      0.000600
    17   Atom       -0.002014      0.000334      0.000701
    18   Atom       -0.000410      0.000573     -0.000049
    19   Atom       -0.000381      0.000651     -0.000192
    20   Atom       -0.000136      0.000348      0.000016
    21   Atom       -0.000524      0.000447     -0.000103
    22   Atom       -0.000052     -0.000046      0.000179
    23   Atom        0.000151     -0.000134      0.000090
    24   Atom        0.000109     -0.000238      0.000085
    25   Atom       -0.000065      0.000040      0.000065
    26   Atom        0.012084     -0.004744      0.030437
    27   Atom       -0.080388      0.062911     -0.193209
    28   Atom        0.019680      0.015144     -0.001091
    29   Atom       -0.014664     -0.009577      0.014640
    30   Atom        0.006601      0.002625      0.001342
    31   Atom       -0.005246     -0.003305      0.003482
    32   Atom       -0.008449     -0.012937     -0.004561
    33   Atom        0.018102      0.014467      0.003706
 --------------------------------------------------------


 ---------------------------------------------------------------------------------
              Anisotropic Spin Dipole Couplings in Principal Axis System
 ---------------------------------------------------------------------------------

       Atom             a.u.   MegaHertz   Gauss  10(-4) cm-1        Axes

              Baa    -0.2022   -27.135    -9.683    -9.051  0.2443  0.7137  0.6565
     1 C(13)  Bbb    -0.1962   -26.331    -9.396    -8.783  0.9320  0.0142 -0.3622
              Bcc     0.3984    53.466    19.078    17.834 -0.2678  0.7003 -0.6617
 
              Baa    -0.0474    -6.355    -2.267    -2.120  0.4681  0.6315  0.6181
     2 C(13)  Bbb    -0.0148    -1.987    -0.709    -0.663  0.8625 -0.1742 -0.4752
              Bcc     0.0622     8.342     2.977     2.782 -0.1924  0.7555 -0.6262
 
              Baa    -0.2382    -9.187    -3.278    -3.064  0.7638  0.4711  0.4412
     3 N(14)  Bbb    -0.2288    -8.826    -3.149    -2.944 -0.6322  0.4083  0.6585
              Bcc     0.4670    18.013     6.427     6.008 -0.1301  0.7819 -0.6097
 
              Baa    -0.0431    -5.787    -2.065    -1.930 -0.1680 -0.6667  0.7261
     4 C(13)  Bbb     0.0104     1.395     0.498     0.465  0.9851 -0.1412  0.0983
              Bcc     0.0327     4.393     1.567     1.465  0.0370  0.7318  0.6805
 
              Baa    -0.1803    13.048     4.656     4.352 -0.1818 -0.6467  0.7407
     5 O(17)  Bbb     0.0841    -6.084    -2.171    -2.029  0.1773  0.7194  0.6716
              Bcc     0.0962    -6.964    -2.485    -2.323  0.9672 -0.2534  0.0161
 
              Baa    -0.2045    -7.888    -2.814    -2.631  0.9993 -0.0312 -0.0225
     6 N(14)  Bbb    -0.1924    -7.419    -2.647    -2.475  0.0385  0.8299  0.5566
              Bcc     0.3969    15.307     5.462     5.106  0.0013 -0.5570  0.8305
 
              Baa    -0.0235    -3.152    -1.125    -1.051  0.9946 -0.0508  0.0900
     7 C(13)  Bbb     0.0037     0.498     0.178     0.166  0.0146  0.9312  0.3643
              Bcc     0.0198     2.653     0.947     0.885 -0.1023 -0.3610  0.9269
 
              Baa    -0.1692   -22.703    -8.101    -7.573  0.9750  0.2220 -0.0035
     8 C(13)  Bbb    -0.1666   -22.360    -7.978    -7.458 -0.1662  0.7400  0.6518
              Bcc     0.3358    45.062    16.079    15.031  0.1473 -0.6349  0.7584
 
              Baa    -0.0315    -4.225    -1.507    -1.409  0.0498 -0.3915  0.9188
     9 C(13)  Bbb     0.0108     1.443     0.515     0.481  0.4614  0.8249  0.3265
              Bcc     0.0207     2.782     0.993     0.928  0.8858 -0.4077 -0.2217
 
              Baa    -0.1052     7.609     2.715     2.538  0.5296  0.8452  0.0716
    10 O(17)  Bbb    -0.1017     7.360     2.626     2.455  0.8400 -0.5109 -0.1827
              Bcc     0.2069   -14.970    -5.342    -4.993  0.1178 -0.1569  0.9806
 
              Baa    -0.0319    -1.231    -0.439    -0.410  0.2339 -0.5862  0.7756
    11 N(14)  Bbb     0.0143     0.553     0.197     0.184  0.6623 -0.4879 -0.5685
              Bcc     0.0176     0.678     0.242     0.226  0.7118  0.6467  0.2741
 
              Baa    -0.0014    -0.189    -0.068    -0.063  0.3566 -0.5786  0.7335
    12 C(13)  Bbb     0.0005     0.071     0.025     0.024  0.9118  0.3866 -0.1383
              Bcc     0.0009     0.118     0.042     0.039 -0.2036  0.7182  0.6654
 
              Baa    -0.0023    -1.174    -0.419    -0.392  0.2104  0.9595  0.1875
    13 F(19)  Bbb    -0.0014    -0.690    -0.246    -0.230  0.5148 -0.2718  0.8131
              Bcc     0.0037     1.864     0.665     0.622  0.8311 -0.0746 -0.5511
 
              Baa    -0.0016    -0.783    -0.279    -0.261 -0.4082  0.6514  0.6396
    14 F(19)  Bbb    -0.0011    -0.549    -0.196    -0.183  0.5087 -0.4194  0.7519
              Bcc     0.0027     1.331     0.475     0.444  0.7580  0.6323 -0.1602
 
              Baa    -0.0013    -0.177    -0.063    -0.059  0.1091 -0.6223  0.7752
    15 C(13)  Bbb     0.0002     0.031     0.011     0.010  0.0470  0.7822  0.6213
              Bcc     0.0011     0.146     0.052     0.049  0.9929  0.0314 -0.1146
 
              Baa    -0.0021    -1.068    -0.381    -0.356 -0.1755 -0.6541  0.7357
    16 F(19)  Bbb    -0.0012    -0.617    -0.220    -0.206 -0.2952  0.7479  0.5946
              Bcc     0.0034     1.686     0.602     0.562  0.9392  0.1128  0.3244
 
              Baa    -0.0024     0.172     0.061     0.057 -0.3390 -0.3342  0.8794
    17 O(17)  Bbb    -0.0007     0.052     0.019     0.017  0.7228  0.5058  0.4709
              Bcc     0.0031    -0.224    -0.080    -0.075 -0.6022  0.7952  0.0701
 
              Baa    -0.0007    -0.088    -0.031    -0.029 -0.4657 -0.5295  0.7090
    18 C(13)  Bbb    -0.0004    -0.053    -0.019    -0.018 -0.0100  0.8043  0.5942
              Bcc     0.0011     0.141     0.050     0.047  0.8849 -0.2697  0.3799
 
              Baa    -0.0006    -0.282    -0.101    -0.094  0.6140  0.5242 -0.5901
    19 F(19)  Bbb    -0.0004    -0.214    -0.076    -0.071 -0.1052  0.7953  0.5970
              Bcc     0.0010     0.497     0.177     0.166  0.7822 -0.3045  0.5435
 
              Baa    -0.0004    -0.223    -0.079    -0.074 -0.3111 -0.6176  0.7224
    20 F(19)  Bbb    -0.0003    -0.162    -0.058    -0.054 -0.1139  0.7789  0.6168
              Bcc     0.0008     0.385     0.137     0.128  0.9435 -0.1096  0.3127
 
              Baa    -0.0006    -0.298    -0.106    -0.099 -0.5057 -0.4535  0.7339
    21 F(19)  Bbb    -0.0004    -0.182    -0.065    -0.061  0.1631  0.7850  0.5976
              Bcc     0.0010     0.480     0.171     0.160  0.8471 -0.4219  0.3230
 
              Baa    -0.0006    -0.076    -0.027    -0.025  0.0003 -0.6516  0.7585
    22 C(13)  Bbb    -0.0002    -0.028    -0.010    -0.009  0.0708  0.7567  0.6500
              Bcc     0.0008     0.104     0.037     0.035  0.9975 -0.0535 -0.0464
 
              Baa    -0.0005    -0.265    -0.095    -0.088  0.1462 -0.5916  0.7928
    23 F(19)  Bbb    -0.0003    -0.155    -0.055    -0.052 -0.0357  0.7978  0.6019
              Bcc     0.0008     0.421     0.150     0.140  0.9886  0.1163 -0.0955
 
              Baa    -0.0005    -0.234    -0.083    -0.078  0.2178 -0.6570  0.7217
    24 F(19)  Bbb    -0.0002    -0.125    -0.045    -0.042  0.0830  0.7493  0.6571
              Bcc     0.0007     0.359     0.128     0.120  0.9725  0.0832 -0.2177
 
              Baa    -0.0003    -0.133    -0.047    -0.044 -0.1106 -0.6194  0.7773
    25 F(19)  Bbb    -0.0001    -0.062    -0.022    -0.021  0.0513  0.7775  0.6268
              Bcc     0.0004     0.194     0.069     0.065  0.9925 -0.1092  0.0542
 
              Baa    -0.0460    -6.178    -2.205    -2.061 -0.1659  0.7447 -0.6465
    26 C(13)  Bbb     0.0158     2.120     0.757     0.707 -0.3173  0.5804  0.7500
              Bcc     0.0302     4.058     1.448     1.354  0.9337  0.3296  0.1400
 
              Baa    -0.1452    10.509     3.750     3.506 -0.5963  0.3508  0.7221
    27 O(17)  Bbb    -0.1405    10.163     3.626     3.390  0.7641  0.5237  0.3766
              Bcc     0.2857   -20.672    -7.376    -6.896 -0.2460  0.7763 -0.5804
 
              Baa    -0.0248   -13.257    -4.730    -4.422 -0.5498  0.4253  0.7190
    28 H(1)   Bbb    -0.0046    -2.446    -0.873    -0.816 -0.2892  0.7106 -0.6415
              Bcc     0.0294    15.703     5.603     5.238  0.7836  0.5606  0.2677
 
              Baa    -0.0261   -13.914    -4.965    -4.641  0.9128  0.4023  0.0707
    29 H(1)   Bbb    -0.0043    -2.305    -0.823    -0.769 -0.2527  0.6922 -0.6760
              Bcc     0.0304    16.220     5.788     5.410 -0.3209  0.5991  0.7335
 
              Baa    -0.0066    -3.522    -1.257    -1.175 -0.2492  0.8152 -0.5228
    30 H(1)   Bbb    -0.0061    -3.246    -1.158    -1.083 -0.3267  0.4375  0.8378
              Bcc     0.0127     6.769     2.415     2.258  0.9117  0.3796  0.1573
 
              Baa    -0.0059    -3.122    -1.114    -1.041  0.2499  0.8081 -0.5335
    31 H(1)   Bbb    -0.0032    -1.694    -0.605    -0.565  0.5756  0.3191  0.7529
              Bcc     0.0090     4.816     1.719     1.607  0.7786 -0.4952 -0.3854
 
              Baa    -0.0197   -10.497    -3.746    -3.501  0.3665  0.7418  0.5616
    32 H(1)   Bbb    -0.0045    -2.377    -0.848    -0.793  0.1862 -0.6498  0.7369
              Bcc     0.0241    12.874     4.594     4.294  0.9116 -0.1655 -0.3763
 
              Baa    -0.0221   -11.785    -4.205    -3.931  0.7565 -0.4310 -0.4919
    33 H(1)   Bbb    -0.0034    -1.789    -0.638    -0.597  0.1454 -0.6225  0.7690
              Bcc     0.0254    13.574     4.843     4.528  0.6377  0.6532  0.4082
 

 ---------------------------------------------------------------------------------

 No NMR shielding tensors so no spin-rotation constants.
 Leave Link  601 at Sun Mar  3 18:00:02 2024, MaxMem=  5368709120 cpu:         6.0
 (Enter /home/k0335/k033513/app/g09/l9999.exe)
 1\1\GINC-C24U18N3\SP\UCAM-B3LYP\6-31G(d,p)\C11H6F9N3O4(1+,2)\K033513\0
 3-Mar-2024\0\\#p CAM-B3LYP/6-31G(d,p) SCRF=(PCM,Solvent=Generic,Read) 
 NoSymm out=wfn\\Title A902650422_p1\\1,2\C,0,3.630925,-1.915013,-2.014
 328\C,0,2.379546,-1.89627,-1.539852\N,0,1.846797,-1.098742,-0.515086\C
 ,0,2.655282,-0.315237,0.314207\O,0,3.874191,-0.486003,0.426556\N,0,1.9
 92826,0.675813,1.0552\C,0,2.796287,1.628955,1.699267\C,0,2.425102,2.61
 0384,2.530081\C,0,0.60382,0.702888,1.126926\O,0,-0.050314,1.68569,1.47
 1369\N,0,-0.031186,-0.450356,0.744463\C,0,-1.463616,-0.535531,0.990838
 \F,0,-1.809883,-1.857356,0.994899\F,0,-1.695819,-0.153797,2.282671\C,0
 ,-2.398653,0.255888,0.030902\F,0,-2.285345,1.592441,0.28456\O,0,-1.968
 732,0.097441,-1.324748\C,0,-2.8992,0.571953,-2.261074\F,0,-2.28248,0.6
 86995,-3.452123\F,0,-3.903385,-0.311025,-2.379271\F,0,-3.377429,1.7736
 42,-1.905017\C,0,-3.81874,-0.208751,0.385769\F,0,-4.035783,-1.494445,0
 .028252\F,0,-4.090187,-0.104546,1.705258\F,0,-4.757563,0.531989,-0.252
 561\C,0,0.478899,-1.214162,-0.272615\O,0,-0.251484,-1.946125,-0.945935
 \H,0,4.433813,-1.287356,-1.645625\H,0,3.890878,-2.587964,-2.827031\H,0
 ,1.666611,-2.563779,-2.026231\H,0,3.865826,1.536903,1.503649\H,0,1.402
 235,2.806747,2.829185\H,0,3.176762,3.26873,2.957446\\Version=ES64L-G09
 RevD.01\HF=-1785.6302019\S2=0.784496\S2-1=0.\S2A=0.750608\RMSD=2.168e-
 09\Dipole=6.6629089,-0.017494,0.0933604\Quadrupole=6.9994268,-4.790583
 ,-2.2088438,-0.9972766,-2.3928733,13.9427741\PG=C01 [X(C11H6F9N3O4)]\\
 @

 Writing a WFN file to "A902650422/A902650422_p1.wfn"


 THE 2ND LAW OF THERMODYNAMICS HAS THE SAME
 DEGREE OF TRUTH AS THE STATEMENT THAT IF YOU THROW
 A TUMBLERFULL OF WATER INTO THE SEA, YOU CANNOT GET
 THE SAME TUMBLERFULL OF WATER OUT AGAIN.
          - J.C. MAXWELL, LETTER TO LORD RAYLEIGH, DECEMBER 6,1870
 Job cpu time:       0 days  0 hours 35 minutes 50.6 seconds.
 File lengths (MBytes):  RWF=    303 Int=      0 D2E=      0 Chk=     11 Scr=      1
 Normal termination of Gaussian 09 at Sun Mar  3 18:00:02 2024.
