 Entering Gaussian System, Link 0=g09
 Initial command:
 /home/k0335/k033513/app/g09/l1.exe "/home/k0335/k033513/app/g09/scratch/Gau-2959788.inp" -scrdir="/home/k0335/k033513/app/g09/scratch/"
 Default is to use a total of  36 processors:
                               36 via shared-memory
                                1 via Linda
 Entering Link 1 = /home/k0335/k033513/app/g09/l1.exe PID=   2959789.
  
 Copyright (c) 1988,1990,1992,1993,1995,1998,2003,2009,2013,
            Gaussian, Inc.  All Rights Reserved.
  
 This is part of the Gaussian(R) 09 program.  It is based on
 the Gaussian(R) 03 system (copyright 2003, Gaussian, Inc.),
 the Gaussian(R) 98 system (copyright 1998, Gaussian, Inc.),
 the Gaussian(R) 94 system (copyright 1995, Gaussian, Inc.),
 the Gaussian 92(TM) system (copyright 1992, Gaussian, Inc.),
 the Gaussian 90(TM) system (copyright 1990, Gaussian, Inc.),
 the Gaussian 88(TM) system (copyright 1988, Gaussian, Inc.),
 the Gaussian 86(TM) system (copyright 1986, Carnegie Mellon
 University), and the Gaussian 82(TM) system (copyright 1983,
 Carnegie Mellon University). Gaussian is a federally registered
 trademark of Gaussian, Inc.
  
 This software contains proprietary and confidential information,
 including trade secrets, belonging to Gaussian, Inc.
  
 This software is provided under written license and may be
 used, copied, transmitted, or stored only in accord with that
 written license.
  
 The following legend is applicable only to US Government
 contracts under FAR:
  
                    RESTRICTED RIGHTS LEGEND
  
 Use, reproduction and disclosure by the US Government is
 subject to restrictions as set forth in subparagraphs (a)
 and (c) of the Commercial Computer Software - Restricted
 Rights clause in FAR 52.227-19.
  
 Gaussian, Inc.
 340 Quinnipiac St., Bldg. 40, Wallingford CT 06492
  
  
 ---------------------------------------------------------------
 Warning -- This program may not be used in any manner that
 competes with the business of Gaussian, Inc. or will provide
 assistance to any competitor of Gaussian, Inc.  The licensee
 of this program is prohibited from giving any competitor of
 Gaussian, Inc. access to this program.  By using this program,
 the user acknowledges that Gaussian, Inc. is engaged in the
 business of creating and licensing software in the field of
 computational chemistry and represents and warrants to the
 licensee that it is not a competitor of Gaussian, Inc. and that
 it will not use this program in any manner prohibited above.
 ---------------------------------------------------------------
  

 Cite this work as:
 Gaussian 09, Revision D.01,
 M. J. Frisch, G. W. Trucks, H. B. Schlegel, G. E. Scuseria, 
 M. A. Robb, J. R. Cheeseman, G. Scalmani, V. Barone, B. Mennucci, 
 G. A. Petersson, H. Nakatsuji, M. Caricato, X. Li, H. P. Hratchian, 
 A. F. Izmaylov, J. Bloino, G. Zheng, J. L. Sonnenberg, M. Hada, 
 M. Ehara, K. Toyota, R. Fukuda, J. Hasegawa, M. Ishida, T. Nakajima, 
 Y. Honda, O. Kitao, H. Nakai, T. Vreven, J. A. Montgomery, Jr., 
 J. E. Peralta, F. Ogliaro, M. Bearpark, J. J. Heyd, E. Brothers, 
 K. N. Kudin, V. N. Staroverov, T. Keith, R. Kobayashi, J. Normand, 
 K. Raghavachari, A. Rendell, J. C. Burant, S. S. Iyengar, J. Tomasi, 
 M. Cossi, N. Rega, J. M. Millam, M. Klene, J. E. Knox, J. B. Cross, 
 V. Bakken, C. Adamo, J. Jaramillo, R. Gomperts, R. E. Stratmann, 
 O. Yazyev, A. J. Austin, R. Cammi, C. Pomelli, J. W. Ochterski, 
 R. L. Martin, K. Morokuma, V. G. Zakrzewski, G. A. Voth, 
 P. Salvador, J. J. Dannenberg, S. Dapprich, A. D. Daniels, 
 O. Farkas, J. B. Foresman, J. V. Ortiz, J. Cioslowski, 
 and D. J. Fox, Gaussian, Inc., Wallingford CT, 2013.
 
 ******************************************
 Gaussian 09:  ES64L-G09RevD.01 24-Apr-2013
                 3-Feb-2025 
 ******************************************
 %nprocshared=24
 Will use up to   24 processors via shared memory.
 %mem=40GB
 %rwf=cytop/AEP1/AEP1_neu.rwf
 %nosave
 %chk=cytop/AEP1/AEP1_neu.chk
 ----------------------------------------------------------------------
 #p CAM-B3LYP/6-31G(d,p) SCRF=(PCM,Solvent=Generic,Read) NoSymm out=wfn
 ----------------------------------------------------------------------
 1/38=1,40=2/1;
 2/12=2,15=1,17=6,18=5,40=1/2;
 3/5=1,6=6,7=101,11=2,16=1,25=1,30=1,70=2203,72=-2,74=-40/1,2,3;
 4//1;
 5/5=2,38=5/2;
 6/7=2,8=2,9=2,10=2,28=1/1;
 99/5=1,6=100,9=1/99;
 Leave Link    1 at Mon Feb  3 21:46:50 2025, MaxMem=  5368709120 cpu:         1.1
 (Enter /home/k0335/k033513/app/g09/l101.exe)
 --------------
 Title AEP1_neu
 --------------
 Symbolic Z-matrix:
 Charge =  0 Multiplicity = 1
 F                    -4.48884   3.13637  -0.82529 
 C                    -3.74409   2.23398  -1.49978 
 F                    -3.35793   2.81684  -2.6506 
 C                    -4.49915   0.93273  -1.70436 
 F                    -3.96811   0.25275  -2.76056 
 F                    -5.80706   1.07379  -1.97514 
 C                    -4.19427   0.18887  -0.43183 
 F                    -4.32277  -1.15566  -0.62614 
 C                    -5.06235   0.59266   0.74617 
 F                    -4.70016  -0.15474   1.8305 
 C                    -6.54533   0.37099   0.44613 
 O                    -7.25002   1.5175    0.32307 
 O                    -7.10556  -0.70357   0.29559 
 F                    -4.79826   1.87774   1.10078 
 C                    -2.72068   0.57812  -0.30062 
 F                    -2.03693  -0.10834  -1.27247 
 C                    -2.06068   0.25882   1.04345 
 F                    -2.59007   1.03246   2.02954 
 C                    -0.53898   0.44627   0.94261 
 N                     0.19064  -0.73019   1.03081 
 C                     1.6388   -0.74985   0.91711 
 C                     2.10682  -0.71372  -0.55228 
 N                     3.55645  -0.71455  -0.7781 
 C                     4.21639  -1.96531  -0.40295 
 C                     5.73336  -1.8478   -0.53809 
 C                     6.30246  -0.76187   0.37508 
 C                     5.25054   0.26551   0.78868 
 C                     4.23075   0.50634  -0.32287 
 O                     0.00033   1.54166   0.80249 
 F                    -2.35813  -1.03565   1.38098 
 O                    -2.60209   1.95826  -0.69376 
 H                    -8.17267   1.23731   0.13545 
 H                    -0.30598  -1.6089    1.14745 
 H                     1.9732   -1.66718   1.41136 
 H                     2.03897   0.10364   1.47473 
 H                     1.6672   -1.56945  -1.08241 
 H                     1.6768    0.16628  -1.04904 
 H                     3.86363  -2.77118  -1.05732 
 H                     3.97971  -2.25698   0.62677 
 H                     5.98779  -1.61638  -1.58062 
 H                     6.20978  -2.80902  -0.31196 
 H                     7.1316   -0.26267  -0.14054 
 H                     6.73031  -1.21558   1.27703 
 H                     5.74239   1.20609   1.0618 
 H                     4.73089  -0.08662   1.68902 
 H                     4.75398   0.93533  -1.18712 
 H                     3.51729   1.27489  -0.00176 
 
 NAtoms=     47 NQM=       47 NQMF=       0 NMMI=      0 NMMIF=      0
                NMic=       0 NMicF=      0.
                    Isotopes and Nuclear Properties:
 (Nuclear quadrupole moments (NQMom) in fm**2, nuclear magnetic moments (NMagM)
  in nuclear magnetons)

  Atom         1           2           3           4           5           6           7           8           9          10
 IAtWgt=          19          12          19          12          19          19          12          19          12          19
 AtmWgt=  18.9984033  12.0000000  18.9984033  12.0000000  18.9984033  18.9984033  12.0000000  18.9984033  12.0000000  18.9984033
 NucSpn=           1           0           1           0           1           1           0           1           0           1
 AtZEff=   0.0000000   0.0000000   0.0000000   0.0000000   0.0000000   0.0000000   0.0000000   0.0000000   0.0000000   0.0000000
 NQMom=    0.0000000   0.0000000   0.0000000   0.0000000   0.0000000   0.0000000   0.0000000   0.0000000   0.0000000   0.0000000
 NMagM=    2.6288670   0.0000000   2.6288670   0.0000000   2.6288670   2.6288670   0.0000000   2.6288670   0.0000000   2.6288670
 AtZNuc=   9.0000000   6.0000000   9.0000000   6.0000000   9.0000000   9.0000000   6.0000000   9.0000000   6.0000000   9.0000000

  Atom        11          12          13          14          15          16          17          18          19          20
 IAtWgt=          12          16          16          19          12          19          12          19          12          14
 AtmWgt=  12.0000000  15.9949146  15.9949146  18.9984033  12.0000000  18.9984033  12.0000000  18.9984033  12.0000000  14.0030740
 NucSpn=           0           0           0           1           0           1           0           1           0           2
 AtZEff=   0.0000000   0.0000000   0.0000000   0.0000000   0.0000000   0.0000000   0.0000000   0.0000000   0.0000000   0.0000000
 NQMom=    0.0000000   0.0000000   0.0000000   0.0000000   0.0000000   0.0000000   0.0000000   0.0000000   0.0000000   2.0440000
 NMagM=    0.0000000   0.0000000   0.0000000   2.6288670   0.0000000   2.6288670   0.0000000   2.6288670   0.0000000   0.4037610
 AtZNuc=   6.0000000   8.0000000   8.0000000   9.0000000   6.0000000   9.0000000   6.0000000   9.0000000   6.0000000   7.0000000

  Atom        21          22          23          24          25          26          27          28          29          30
 IAtWgt=          12          12          14          12          12          12          12          12          16          19
 AtmWgt=  12.0000000  12.0000000  14.0030740  12.0000000  12.0000000  12.0000000  12.0000000  12.0000000  15.9949146  18.9984033
 NucSpn=           0           0           2           0           0           0           0           0           0           1
 AtZEff=   0.0000000   0.0000000   0.0000000   0.0000000   0.0000000   0.0000000   0.0000000   0.0000000   0.0000000   0.0000000
 NQMom=    0.0000000   0.0000000   2.0440000   0.0000000   0.0000000   0.0000000   0.0000000   0.0000000   0.0000000   0.0000000
 NMagM=    0.0000000   0.0000000   0.4037610   0.0000000   0.0000000   0.0000000   0.0000000   0.0000000   0.0000000   2.6288670
 AtZNuc=   6.0000000   6.0000000   7.0000000   6.0000000   6.0000000   6.0000000   6.0000000   6.0000000   8.0000000   9.0000000

  Atom        31          32          33          34          35          36          37          38          39          40
 IAtWgt=          16           1           1           1           1           1           1           1           1           1
 AtmWgt=  15.9949146   1.0078250   1.0078250   1.0078250   1.0078250   1.0078250   1.0078250   1.0078250   1.0078250   1.0078250
 NucSpn=           0           1           1           1           1           1           1           1           1           1
 AtZEff=   0.0000000   0.0000000   0.0000000   0.0000000   0.0000000   0.0000000   0.0000000   0.0000000   0.0000000   0.0000000
 NQMom=    0.0000000   0.0000000   0.0000000   0.0000000   0.0000000   0.0000000   0.0000000   0.0000000   0.0000000   0.0000000
 NMagM=    0.0000000   2.7928460   2.7928460   2.7928460   2.7928460   2.7928460   2.7928460   2.7928460   2.7928460   2.7928460
 AtZNuc=   8.0000000   1.0000000   1.0000000   1.0000000   1.0000000   1.0000000   1.0000000   1.0000000   1.0000000   1.0000000

  Atom        41          42          43          44          45          46          47
 IAtWgt=           1           1           1           1           1           1           1
 AtmWgt=   1.0078250   1.0078250   1.0078250   1.0078250   1.0078250   1.0078250   1.0078250
 NucSpn=           1           1           1           1           1           1           1
 AtZEff=   0.0000000   0.0000000   0.0000000   0.0000000   0.0000000   0.0000000   0.0000000
 NQMom=    0.0000000   0.0000000   0.0000000   0.0000000   0.0000000   0.0000000   0.0000000
 NMagM=    2.7928460   2.7928460   2.7928460   2.7928460   2.7928460   2.7928460   2.7928460
 AtZNuc=   1.0000000   1.0000000   1.0000000   1.0000000   1.0000000   1.0000000   1.0000000
 Leave Link  101 at Mon Feb  3 21:46:50 2025, MaxMem=  5368709120 cpu:         0.8
 (Enter /home/k0335/k033513/app/g09/l202.exe)
                          Input orientation:                          
 ---------------------------------------------------------------------
 Center     Atomic      Atomic             Coordinates (Angstroms)
 Number     Number       Type             X           Y           Z
 ---------------------------------------------------------------------
      1          9           0       -4.488838    3.136366   -0.825293
      2          6           0       -3.744091    2.233975   -1.499776
      3          9           0       -3.357929    2.816843   -2.650601
      4          6           0       -4.499154    0.932728   -1.704362
      5          9           0       -3.968108    0.252753   -2.760564
      6          9           0       -5.807056    1.073791   -1.975139
      7          6           0       -4.194269    0.188871   -0.431830
      8          9           0       -4.322765   -1.155665   -0.626136
      9          6           0       -5.062348    0.592655    0.746165
     10          9           0       -4.700158   -0.154740    1.830499
     11          6           0       -6.545329    0.370992    0.446129
     12          8           0       -7.250019    1.517500    0.323070
     13          8           0       -7.105563   -0.703565    0.295586
     14          9           0       -4.798258    1.877737    1.100780
     15          6           0       -2.720682    0.578121   -0.300615
     16          9           0       -2.036930   -0.108340   -1.272469
     17          6           0       -2.060684    0.258817    1.043447
     18          9           0       -2.590065    1.032462    2.029541
     19          6           0       -0.538975    0.446272    0.942610
     20          7           0        0.190641   -0.730194    1.030811
     21          6           0        1.638803   -0.749853    0.917108
     22          6           0        2.106817   -0.713719   -0.552276
     23          7           0        3.556450   -0.714547   -0.778100
     24          6           0        4.216394   -1.965312   -0.402954
     25          6           0        5.733359   -1.847803   -0.538088
     26          6           0        6.302456   -0.761865    0.375075
     27          6           0        5.250544    0.265514    0.788684
     28          6           0        4.230752    0.506341   -0.322874
     29          8           0        0.000329    1.541664    0.802488
     30          9           0       -2.358129   -1.035651    1.380975
     31          8           0       -2.602086    1.958262   -0.693764
     32          1           0       -8.172675    1.237313    0.135447
     33          1           0       -0.305976   -1.608898    1.147449
     34          1           0        1.973198   -1.667180    1.411355
     35          1           0        2.038966    0.103639    1.474725
     36          1           0        1.667204   -1.569451   -1.082411
     37          1           0        1.676797    0.166279   -1.049043
     38          1           0        3.863630   -2.771176   -1.057315
     39          1           0        3.979709   -2.256983    0.626774
     40          1           0        5.987788   -1.616380   -1.580615
     41          1           0        6.209782   -2.809015   -0.311962
     42          1           0        7.131604   -0.262671   -0.140537
     43          1           0        6.730314   -1.215576    1.277033
     44          1           0        5.742390    1.206089    1.061798
     45          1           0        4.730887   -0.086622    1.689015
     46          1           0        4.753981    0.935329   -1.187119
     47          1           0        3.517291    1.274894   -0.001760
 ---------------------------------------------------------------------
                    Distance matrix (angstroms):
                    1          2          3          4          5
     1  F    0.000000
     2  C    1.350513   0.000000
     3  F    2.170898   1.346571   0.000000
     4  C    2.372528   1.518295   2.397426   0.000000
     5  F    3.511646   2.359027   2.637986   1.363796   0.000000
     6  F    2.704452   2.414088   3.081023   1.343066   2.161649
     7  C    2.988195   2.350664   3.539583   1.505196   2.340562
     8  F    4.299857   3.547925   4.561818   2.356920   2.581706
     9  C    3.044480   3.078309   4.403416   2.537306   3.689179
    10  F    4.234296   4.208415   5.541854   3.703813   4.666884
    11  C    3.673277   3.886410   5.072617   3.021091   4.115693
    12  O    3.400527   4.015923   5.067482   3.466943   4.677534
    13  O    4.780030   4.811648   5.926049   3.670234   4.483104
    14  F    2.321561   2.828615   4.126661   2.975118   4.270796
    15  C    3.153772   2.286308   3.307627   2.293298   2.777280
    16  F    4.091447   2.907320   3.492990   2.707933   2.464602
    17  C    4.203381   3.633606   4.676787   3.735070   4.255444
    18  F    4.022664   3.902754   5.067283   4.194830   5.045003
    19  C    5.095440   4.408390   5.145607   4.788123   5.050733
    20  N    6.347671   5.538256   6.223071   5.678086   5.712784
    21  C    7.462348   6.612118   7.100507   6.883146   6.779966
    22  C    7.642013   6.619651   6.836028   6.904849   6.535696
    23  N    8.919553   7.906484   7.986590   8.274312   7.841225
    24  C   10.098839   9.066772   9.235328   9.276480   8.801375
    25  C   11.376192  10.363774  10.434230  10.667515  10.172030
    26  C   11.536426  10.650034  10.737081  11.129712  10.786388
    27  C   10.281161   9.487642   9.614768  10.085488   9.878303
    28  C    9.121442   8.244267   8.267092   8.848818   8.557333
    29  O    5.034418   4.449763   4.982750   5.186564   5.486814
    30  F    5.178153   4.572753   5.665237   4.240025   4.626485
    31  O    2.228242   1.424727   2.266643   2.381574   3.007730
    32  H    4.254419   4.824899   5.782625   4.119760   5.199483
    33  H    6.626128   5.796215   6.582308   5.672339   5.670055
    34  H    8.356707   7.508734   8.063924   7.639277   7.509339
    35  H    7.556437   6.843226   7.314798   7.317171   7.351520
    36  H    7.752914   6.627394   6.852062   6.683689   6.155759
    37  H    6.847374   5.819326   5.910917   6.257736   5.899299
    38  H   10.233113   9.117276   9.269058   9.169173   8.566290
    39  H   10.144604   9.184117   9.503990   9.354120   8.996701
    40  H   11.529042  10.466195  10.399075  10.793017  10.198324
    41  H   12.250369  11.221508  11.342866  11.428943  10.906857
    42  H   12.126707  11.241064  11.216690  11.796146  11.416383
    43  H   12.215914  11.372037  11.552461  11.815451  11.528851
    44  H   10.581357   9.879855   9.959530  10.612049  10.479173
    45  H   10.085273   9.347663   9.627633   9.886746   9.776832
    46  H    9.508164   8.602410   8.454878   9.267581   8.889121
    47  H    8.260834   7.476066   7.527457   8.202397   8.042821
                    6          7          8          9         10
     6  F    0.000000
     7  C    2.401243   0.000000
     8  F    2.998900   1.364567   0.000000
     9  C    2.862093   1.517984   2.342395   0.000000
    10  F    4.149385   2.343528   2.679428   1.365855   0.000000
    11  C    2.627073   2.516240   2.901762   1.529179   2.365910
    12  O    2.749688   3.416539   4.076226   2.412520   3.401547
    13  O    3.162484   3.130688   2.966131   2.461287   2.905708
    14  F    3.335458   2.359230   3.522763   1.359018   2.161730
    15  C    3.546184   1.529768   2.382991   2.565026   2.999510
    16  F    4.013107   2.334335   2.596089   3.703975   4.089419
    17  C    4.879687   2.594903   3.147265   3.034767   2.785194
    18  F    5.136945   3.056708   3.852631   2.820047   2.429312
    19  C    6.054727   3.913632   4.398208   4.530002   4.297093
    20  N    6.947119   4.712901   4.826731   5.424467   4.989044
    21  C    8.193387   6.060162   6.171432   6.836445   6.432019
    22  C    8.237058   6.366542   6.445176   7.401992   7.233601
    23  N    9.607617   7.810871   7.893016   8.849624   8.676967
    24  C   10.591386   8.682200   8.580360   9.693231   9.368638
    25  C   11.990913  10.134946  10.080299  11.142371  10.832126
    26  C   12.471304  10.570536  10.679552  11.451253  11.115052
    27  C   11.426397   9.523656   9.781089  10.318167  10.013913
    28  C   10.188698   8.431704   8.718766   9.354785   9.210602
    29  O    6.454443   4.576925   5.292040   5.151164   5.101879
    30  F    5.254364   2.856068   2.811173   3.219808   2.542278
    31  O    3.563151   2.394661   3.558349   3.160881   3.903663
    32  H    3.174502   4.153161   4.596538   3.234609   4.107236
    33  H    6.870899   4.565624   4.414252   5.256514   4.678672
    34  H    8.917041   6.699247   6.637181   7.419450   6.855424
    35  H    8.625707   6.518852   6.816970   7.155319   6.753453
    36  H    7.977986   6.154008   6.021556   7.301045   7.143511
    37  H    7.595346   5.903463   6.158014   6.987177   7.004311
    38  H   10.447408   8.607139   8.355409   9.707779   9.408702
    39  H   10.660430   8.597486   8.468398   9.481218   9.011574
    40  H   12.104173  10.404466  10.364883  11.506487  11.313898
    41  H   12.737611  10.828018  10.666153  11.821671  11.430753
    42  H   13.136241  11.338613  11.499383  12.256031  11.995300
    43  H   13.153078  11.146264  11.215890  11.942294  11.492928
    44  H   11.942788  10.099646  10.475416  10.826740  10.558862
    45  H   11.216988   9.177815   9.405923   9.861939   9.432352
    46  H   10.591301   9.011040   9.331360  10.010761   9.983737
    47  H    9.533001   7.799523   8.231886   8.639158   8.539760
                   11         12         13         14         15
    11  C    0.000000
    12  O    1.351374   0.000000
    13  O    1.221146   2.225927   0.000000
    14  F    2.398146   2.597255   3.554591   0.000000
    15  C    3.902365   4.667581   4.607098   2.822983   0.000000
    16  F    4.848608   5.689059   5.338926   4.147499   1.372314
    17  C    4.525639   5.388174   5.190017   3.180959   1.531031
    18  F    4.311479   4.986229   5.139077   2.540316   2.377628
    19  C    6.027309   6.824183   6.697824   4.496176   2.514525
    20  N    6.850384   7.804899   7.333202   5.629859   3.458350
    21  C    8.273943   9.192656   8.766548   6.955122   4.717147
    22  C    8.776847   9.658931   9.251320   7.558326   5.003692
    23  N   10.233429  11.089381  10.715943   8.947138   6.426614
    24  C   11.045087  12.005654  11.413443   9.914343   7.389354
    25  C   12.516306  13.440051  12.916742  11.290726   8.798427
    26  C   12.897829  13.742918  13.408381  11.433285   9.147084
    27  C   11.801317  12.571728  12.403856  10.182096   8.051381
    28  C   10.804333  11.543301  11.417460   9.242864   6.951840
    29  O    6.659062   7.266221   7.469384   4.819581   3.090170
    30  F    4.515000   5.618570   4.881238   3.810586   2.358697
    31  O    4.400903   4.778232   5.324044   2.837260   1.439938
    32  H    1.869570   0.982345   2.220671   3.567730   5.508985
    33  H    6.583414   7.659876   6.912285   5.686774   3.565213
    34  H    8.811987   9.818059   9.197684   7.649543   5.477657
    35  H    8.649833   9.466285   9.255504   7.073535   5.102079
    36  H    8.575981   9.540519   8.922448   7.645366   4.947405
    37  H    8.359474   9.132170   8.927178   7.034001   4.479685
    38  H   10.976338  11.992139  11.244045  10.064694   7.425870
    39  H   10.849669  11.850981  11.198484   9.714592   7.334378
    40  H   12.850539  13.736257  13.258552  11.650645   9.071476
    41  H   13.167384  14.152323  13.494460  12.047341   9.551231
    42  H   13.704167  14.498794  14.250667  12.183752   9.889393
    43  H   13.395906  14.276886  13.880090  11.937656   9.748213
    44  H   12.331442  13.017119  13.011678  10.562097   8.595004
    45  H   11.353732  12.164749  11.934145   9.747273   7.741214
    46  H   11.430677  12.112622  12.063713   9.867517   7.535521
    47  H   10.113059  10.774940  10.809613   8.409957   6.283877
                   16         17         18         19         20
    16  F    0.000000
    17  C    2.344960   0.000000
    18  F    3.537041   1.360571   0.000000
    19  C    2.730941   1.536524   2.394161   0.000000
    20  N    3.264027   2.459017   3.440457   1.387152   0.000000
    21  C    4.326292   3.836611   4.722021   2.484770   1.452752
    22  C    4.249212   4.567299   5.636987   3.252765   2.485592
    23  N    5.647813   5.984786   6.979580   4.591389   3.821135
    24  C    6.580917   6.814729   7.825060   5.499074   4.448358
    25  C    7.996402   8.227163   9.174314   6.840864   5.867897
    26  C    8.525659   8.451664   9.221377   6.970428   6.146973
    27  C    7.582572   7.315668   7.975154   5.794385   5.162623
    28  C    6.368940   6.442846   7.234238   4.935114   4.436663
    29  O    3.343409   2.439576   2.911200   1.228970   2.291220
    30  F    2.829106   1.370418   2.179799   2.386961   2.590781
    31  O    2.219267   2.489806   2.876394   3.036488   4.242791
    32  H    6.437420   6.256065   5.898736   7.716906   8.638160
    33  H    3.332248   2.564795   3.601657   2.078454   1.016048
    34  H    5.070899   4.485201   5.337939   3.316235   2.049455
    35  H    4.919851   4.125192   4.753784   2.654491   2.075727
    36  H    3.986424   4.664653   5.880352   3.609858   2.711143
    37  H    3.730563   4.284372   5.332360   2.992444   2.708896
    38  H    6.477159   6.977933   8.102254   5.808150   4.692198
    39  H    6.665113   6.556616   7.479982   5.275021   4.105042
    40  H    8.171000   8.670638   9.676216   7.295192   6.419641
    41  H    8.730663   8.924648   9.883162   7.597142   6.508041
    42  H    9.239432   9.282884  10.044773   7.779048   7.054616
    43  H    9.197309   8.916840   9.617141   7.464324   6.562282
    44  H    8.227657   7.860383   8.390261   6.328276   5.879802
    45  H    7.387436   6.830924   7.413814   5.349069   4.632629
    46  H    6.871172   7.202274   8.018189   5.726282   5.340155
    47  H    5.863225   5.765299   6.440866   4.246380   4.019102
                   21         22         23         24         25
    21  C    0.000000
    22  C    1.542541   0.000000
    23  N    2.559755   1.467117   0.000000
    24  C    3.140681   2.457457   1.463104   0.000000
    25  C    4.482017   3.799757   2.465929   1.527499   0.000000
    26  C    4.695062   4.297172   2.978691   2.530863   1.528725
    27  C    3.753949   3.555290   2.507047   2.732408   2.541563
    28  C    3.135886   2.460136   1.467134   2.472992   2.801096
    29  O    2.819359   3.370375   4.498304   5.614907   6.793619
    30  F    4.033896   4.876150   6.304519   6.875393   8.355511
    31  O    5.283364   5.416020   6.714059   7.872145   9.164606
    32  H   10.041161  10.485583  11.925464  12.807643  14.260062
    33  H    2.138500   3.084150   4.407487   4.794018   6.274685
    34  H    1.094344   2.186959   2.864945   2.900436   4.239312
    35  H    1.095224   2.186644   2.836795   3.542235   4.637681
    36  H    2.161163   1.098444   2.095881   2.667721   4.111859
    37  H    2.169445   1.098222   2.093409   3.377967   4.557773
    38  H    3.596380   2.752197   2.098105   1.096379   2.148977
    39  H    2.799210   2.698064   2.128833   1.096098   2.144672
    40  H    5.089515   4.115120   2.714542   2.155569   1.097795
    41  H    5.161842   4.613278   3.412367   2.166497   1.096376
    42  H    5.614875   5.061764   3.659563   3.386192   2.150763
    43  H    5.125420   4.997495   3.814186   3.115165   2.165247
    44  H    4.548194   4.416819   3.442732   3.812079   3.447604
    45  H    3.255257   3.507475   2.803613   2.858411   3.011096
    46  H    4.119702   3.182744   2.079295   3.052480   3.020968
    47  H    2.910779   2.499417   2.135910   3.338957   3.866503
                   26         27         28         29         30
    26  C    0.000000
    27  C    1.527448   0.000000
    28  C    2.527338   1.527591   0.000000
    29  O    6.723521   5.403102   4.498312   0.000000
    30  F    8.723103   7.741818   6.978122   3.541119   0.000000
    31  O    9.371893   8.168650   6.995235   3.030658   3.650695
    32  H   14.614498  13.474195  12.433398   8.205825   6.366055
    33  H    6.707116   5.875121   5.217086   3.184158   2.143473
    34  H    4.542681   3.855389   3.581661   3.815706   4.377230
    35  H    4.487279   3.288022   2.863120   2.583768   4.543260
    36  H    4.925649   4.439416   3.384906   4.001294   4.749370
    37  H    4.928112   4.019795   2.676873   2.851385   4.861096
    38  H    3.469430   3.814804   3.378802   6.081492   6.904172
    39  H    2.773785   2.829174   2.932714   5.504186   6.498358
    40  H    2.157298   3.114263   3.029032   7.176495   8.874829
    41  H    2.161349   3.403570   3.861122   7.663401   8.911787
    42  H    1.096602   2.163520   3.006588   7.416199   9.641967
    43  H    1.096560   2.149845   3.431109   7.288365   9.090818
    44  H    2.158264   1.095986   2.166106   5.757701   8.411045
    45  H    2.156901   1.097561   2.156255   5.080888   7.158889
    46  H    2.778253   2.144534   1.097597   5.188775   7.814216
    47  H    3.470956   2.155879   1.096729   3.617596   6.463059
                   31         32         33         34         35
    31  O    0.000000
    32  H    5.677924   0.000000
    33  H    4.624588   8.426744   0.000000
    34  H    6.205528  10.630276   2.295142   0.000000
    35  H    5.448058  10.361298   2.922096   1.773173   0.000000
    36  H    5.551814  10.304578   2.977796   2.514369   3.078373
    37  H    4.652555   9.978087   3.450684   3.082691   2.550391
    38  H    8.019055  12.742186   4.857725   3.299526   4.243252
    39  H    7.926672  12.654325   4.365571   2.233724   3.171441
    40  H    9.346149  14.546723   6.859581   5.007135   5.280792
    41  H   10.026052  14.947509   6.784192   4.714048   5.391800
    42  H    9.999166  15.380087   7.667388   5.566881   5.355205
    43  H   10.052412  15.146583   7.048466   4.780391   4.877310
    44  H    8.560259  13.945900   6.671898   4.752333   3.886033
    45  H    7.976947  13.064007   5.289670   3.190628   2.707131
    46  H    7.443219  12.997646   6.125885   4.610626   3.892098
    47  H    6.196179  11.690832   4.924866   3.610667   2.395264
                   36         37         38         39         40
    36  H    0.000000
    37  H    1.736077   0.000000
    38  H    2.503809   3.662096   0.000000
    39  H    2.956635   3.739514   1.764660   0.000000
    40  H    4.349466   4.695219   2.473751   3.052101   0.000000
    41  H    4.771281   5.472076   2.461994   2.481772   1.755318
    42  H    5.696882   5.546558   4.220513   3.807951   2.283565
    43  H    5.597078   5.732206   4.010854   3.012174   2.979621
    44  H    5.376653   4.697436   4.882521   3.910135   3.874132
    45  H    4.389275   4.109548   3.937168   2.530433   3.822361
    46  H    3.976566   3.174833   3.814152   3.752407   2.861527
    47  H    3.561029   2.390240   4.195811   3.617049   4.117718
                   41         42         43         44         45
    41  H    0.000000
    42  H    2.713487   0.000000
    43  H    2.309742   1.754584   0.000000
    44  H    4.269278   2.352186   2.624268   0.000000
    45  H    3.688152   3.023524   2.332804   1.757169   0.000000
    46  H    4.111614   2.860704   3.821561   2.471415   3.052387
    47  H    4.901433   3.930219   4.261604   2.467176   2.487019
                   46         47
    46  H    0.000000
    47  H    1.746363   0.000000
 Symmetry turned off by external request.
 Stoichiometry    C15H16F10N2O4
 Framework group  C1[X(C15H16F10N2O4)]
 Deg. of freedom   135
 Full point group                 C1      NOp   1
 Rotational constants (GHZ):      0.3607048      0.0653701      0.0627090
 Leave Link  202 at Mon Feb  3 21:46:50 2025, MaxMem=  5368709120 cpu:         0.1
 (Enter /home/k0335/k033513/app/g09/l301.exe)
 Standard basis: 6-31G(d,p) (6D, 7F)
 Ernie: Thresh=  0.10000D-02 Tol=  0.10000D-05 Strict=F.
   545 basis functions,   980 primitive gaussians,   545 cartesian basis functions
   121 alpha electrons      121 beta electrons
       nuclear repulsion energy      3797.8546199797 Hartrees.
 IExCor=20419 DFT=T Ex+Corr=CAM-B3LYP ExCW=0 ScaHFX=  1.000000
 ScaDFX=  1.000000  1.000000  1.000000  0.810000 ScalE2=  1.000000  1.000000
 IRadAn=      0 IRanWt=     -1 IRanGd=            0 ICorTp=0 IEmpDi=  4
  HFx wShort=  0.000000 wLong=  0.330000 cFull=  0.190000 cShort=  0.000000 cLong=  0.460000
  DFx wShort=  0.000000 wLong=  0.330000 cFull=  0.190000 cShort=  0.000000 cLong=  0.460000
 NAtoms=   47 NActive=   47 NUniq=   47 SFac= 1.00D+00 NAtFMM=   60 NAOKFM=F Big=F
 Integral buffers will be    131072 words long.
 Raffenetti 2 integral format.
 Two-electron integral symmetry is turned off.
 Using the following non-standard input for PCM:
 eps=2.05
 --- end of non-standard input.
 ------------------------------------------------------------------------------
 Polarizable Continuum Model (PCM)
 =================================
 Model                : PCM (using non-symmetric T matrix).
 Atomic radii         : UFF (Universal Force Field).
 Polarization charges : Total charges.
 Charge compensation  : None.
 Solution method      : On-the-fly selection.
 Cavity type          : Scaled VdW (van der Waals Surface) (Alpha=1.100).
 Cavity algorithm     : GePol (No added spheres)
                        Default sphere list used, NSphG=   47.
                        Lebedev-Laikov grids with approx.  5.0 points / Ang**2.
                        Smoothing algorithm: Karplus/York (Gamma=1.0000).
                        Polarization charges: spherical gaussians, with
                                              point-specific exponents (IZeta= 3).
                        Self-potential: point-specific (ISelfS= 7).
                        Self-field    : sphere-specific E.n sum rule (ISelfD= 2).
 Solvent              : Generic,
                        Eps                           =   2.050000
                        Eps(infinity)                 =   0.000000
                        RSolv                         =   0.000000 Ang.
                        Molar volume                  =   0.000000 cm**3/mol
                        Thermal expansion coefficient =   0.000000 K**-1
                        Absolute temperature          = 298.150000 K
                        Numeral density               =   0.000000 Ang**-3
                        Hydrogen bond acidity         =   0.000000
                        Hydrogen bond basicity        =   0.000000
                        Surface tension at interface  =   0.000000 (cal/mol)*Ang**-2
                        Carbon aromaticity            =   0.000000
                        Electronegative halogenicity  =   0.000000
 ------------------------------------------------------------------------------
 GePol: Number of generator spheres                  =      47
 GePol: Total number of spheres                      =      47
 GePol: Number of exposed spheres                    =      46 ( 97.87%)
 GePol: Number of points                             =    3429
 GePol: Average weight of points                     =       0.13
 GePol: Minimum weight of points                     =   0.51D-10
 GePol: Maximum weight of points                     =    0.20577
 GePol: Number of points with low weight             =     201
 GePol: Fraction of low-weight points (<1% of avg)   =       5.86%
 GePol: Cavity surface area                          =    434.278 Ang**2
 GePol: Cavity volume                                =    494.048 Ang**3
 Leave Link  301 at Mon Feb  3 21:46:50 2025, MaxMem=  5368709120 cpu:         0.8
 (Enter /home/k0335/k033513/app/g09/l302.exe)
 NPDir=0 NMtPBC=     1 NCelOv=     1 NCel=       1 NClECP=     1 NCelD=      1
         NCelK=      1 NCelE2=     1 NClLst=     1 CellRange=     0.0.
 One-electron integrals computed using PRISM.
 NBasis=   545 RedAO= T EigKep=  8.64D-04  NBF=   545
 NBsUse=   545 1.00D-06 EigRej= -1.00D+00 NBFU=   545
 Precomputing XC quadrature grid using
 IXCGrd= 4 IRadAn=           0 IRanWt=          -1 IRanGd=           0 AccXCQ= 0.00D+00.
 Generated NRdTot=       0 NPtTot=           0 NUsed=           0 NTot=          32
 NSgBfM=   516   518   521   525   525 MxSgAt=    47 MxSgA2=    47.
 Leave Link  302 at Mon Feb  3 21:46:51 2025, MaxMem=  5368709120 cpu:         9.9
 (Enter /home/k0335/k033513/app/g09/l303.exe)
 DipDrv:  MaxL=1.
 Leave Link  303 at Mon Feb  3 21:46:51 2025, MaxMem=  5368709120 cpu:         0.8
 (Enter /home/k0335/k033513/app/g09/l401.exe)
 ExpMin= 1.61D-01 ExpMax= 7.00D+03 ExpMxC= 1.05D+03 IAcc=1 IRadAn=         1 AccDes= 0.00D+00
 Harris functional with IExCor=20419 and IRadAn=       1 diagonalized for initial guess.
 HarFok:  IExCor=20419 AccDes= 0.00D+00 IRadAn=         1 IDoV= 1 UseB2=F ITyADJ=14
 ICtDFT=  3500011 ScaDFX=  1.000000  1.000000  1.000000  1.000000
 FoFCou: FMM=F IPFlag=           0 FMFlag=      100000 FMFlg1=           0
         NFxFlg=           0 DoJE=T BraDBF=F KetDBF=T FulRan=T
         wScrn=  0.000000 ICntrl=     500 IOpCl=  0 I1Cent=   200000004 NGrid=           0
         NMat0=    1 NMatS0=      1 NMatT0=    0 NMatD0=    1 NMtDS0=    0 NMtDT0=    0
 Symmetry not used in FoFCou.
 Harris En= -1925.44064689916    
 JPrj=0 DoOrth=F DoCkMO=F.
 Leave Link  401 at Mon Feb  3 21:46:52 2025, MaxMem=  5368709120 cpu:        11.6
 (Enter /home/k0335/k033513/app/g09/l502.exe)
 Closed shell SCF:
 Using DIIS extrapolation, IDIIS=  1040.
 Two-electron integral symmetry not used.
 IVT=      926069 IEndB=      926069 NGot=  5368709120 MDV=  5368097262
 LenX=  5368097262 LenY=  5367799692
 Requested convergence on RMS density matrix=1.00D-08 within 128 cycles.
 Requested convergence on MAX density matrix=1.00D-06.
 Requested convergence on             energy=1.00D-06.
 No special actions if energy rises.
 Fock matrices will be formed incrementally for  20 cycles.

 Cycle   1  Pass 1  IDiag  1:
 FoFJK:  IHMeth= 1 ICntrl=       0 DoSepK=T KAlg= 0 I1Cent=   0 FoldK=F
 IRaf=         1 NMat=   1 IRICut=       1 DoRegI=T DoRafI=F ISym2E= 0.
 FoFCou: FMM=F IPFlag=           0 FMFlag=      100000 FMFlg1=           0
         NFxFlg=           0 DoJE=T BraDBF=F KetDBF=F FulRan=T
         wScrn=  0.000000 ICntrl=     500 IOpCl=  0 I1Cent=           0 NGrid=           0
         NMat0=    1 NMatS0=      1 NMatT0=    0 NMatD0=    1 NMtDS0=    0 NMtDT0=    0
 Symmetry not used in FoFCou.
 Inv3:  Mode=1 IEnd=    35274123.
 Iteration    1 A*A^-1 deviation from unit magnitude is 6.77D-15 for   3422.
 Iteration    1 A*A^-1 deviation from orthogonality  is 3.65D-15 for   3405   1703.
 Iteration    1 A^-1*A deviation from unit magnitude is 6.66D-15 for   3422.
 Iteration    1 A^-1*A deviation from orthogonality  is 1.60D-14 for   3230   3213.
 E= -1988.76348911076    
 DIIS: error= 6.47D-02 at cycle   1 NSaved=   1.
 NSaved= 1 IEnMin= 1 EnMin= -1988.76348911076     IErMin= 1 ErrMin= 6.47D-02
 ErrMax= 6.47D-02  0.00D+00 EMaxC= 1.00D-01 BMatC= 1.60D+00 BMatP= 1.60D+00
 IDIUse=3 WtCom= 3.53D-01 WtEn= 6.47D-01
 Coeff-Com:  0.100D+01
 Coeff-En:   0.100D+01
 Coeff:      0.100D+01
 Gap=     0.406 Goal=   None    Shift=    0.000
 GapD=    0.406 DampG=2.000 DampE=0.500 DampFc=1.0000 IDamp=-1.
 RMSDP=2.74D-03 MaxDP=1.13D-01              OVMax= 1.23D-01

 Cycle   2  Pass 1  IDiag  1:
 RMSU=  2.74D-03    CP:  9.95D-01
 E= -1988.99277585917     Delta-E=       -0.229286748412 Rises=F Damp=F
 DIIS: error= 2.00D-02 at cycle   2 NSaved=   2.
 NSaved= 2 IEnMin= 2 EnMin= -1988.99277585917     IErMin= 2 ErrMin= 2.00D-02
 ErrMax= 2.00D-02  0.00D+00 EMaxC= 1.00D-01 BMatC= 5.85D-01 BMatP= 1.60D+00
 IDIUse=3 WtCom= 8.00D-01 WtEn= 2.00D-01
 Coeff-Com:  0.353D+00 0.647D+00
 Coeff-En:   0.340D+00 0.660D+00
 Coeff:      0.350D+00 0.650D+00
 Gap=     0.266 Goal=   None    Shift=    0.000
 RMSDP=1.29D-03 MaxDP=6.83D-02 DE=-2.29D-01 OVMax= 8.42D-02

 Cycle   3  Pass 1  IDiag  1:
 RMSU=  8.09D-04    CP:  1.00D+00  6.36D-01
 E= -1989.26954362748     Delta-E=       -0.276767768309 Rises=F Damp=F
 DIIS: error= 7.20D-03 at cycle   3 NSaved=   3.
 NSaved= 3 IEnMin= 3 EnMin= -1989.26954362748     IErMin= 3 ErrMin= 7.20D-03
 ErrMax= 7.20D-03  0.00D+00 EMaxC= 1.00D-01 BMatC= 1.13D-01 BMatP= 5.85D-01
 IDIUse=3 WtCom= 9.28D-01 WtEn= 7.20D-02
 Coeff-Com:  0.701D-01 0.321D+00 0.609D+00
 Coeff-En:   0.000D+00 0.131D+00 0.869D+00
 Coeff:      0.651D-01 0.307D+00 0.628D+00
 Gap=     0.269 Goal=   None    Shift=    0.000
 RMSDP=5.85D-04 MaxDP=4.25D-02 DE=-2.77D-01 OVMax= 6.27D-02

 Cycle   4  Pass 1  IDiag  1:
 RMSU=  3.11D-04    CP:  9.96D-01  7.25D-01  4.74D-01
 E= -1989.33586947367     Delta-E=       -0.066325846196 Rises=F Damp=F
 DIIS: error= 2.95D-03 at cycle   4 NSaved=   4.
 NSaved= 4 IEnMin= 4 EnMin= -1989.33586947367     IErMin= 4 ErrMin= 2.95D-03
 ErrMax= 2.95D-03  0.00D+00 EMaxC= 1.00D-01 BMatC= 1.03D-02 BMatP= 1.13D-01
 IDIUse=3 WtCom= 9.71D-01 WtEn= 2.95D-02
 Coeff-Com:  0.615D-02 0.986D-01 0.318D+00 0.577D+00
 Coeff-En:   0.000D+00 0.000D+00 0.259D-01 0.974D+00
 Coeff:      0.597D-02 0.957D-01 0.310D+00 0.589D+00
 Gap=     0.257 Goal=   None    Shift=    0.000
 RMSDP=1.75D-04 MaxDP=1.47D-02 DE=-6.63D-02 OVMax= 2.18D-02

 Cycle   5  Pass 1  IDiag  1:
 RMSU=  7.94D-05    CP:  9.97D-01  7.25D-01  6.09D-01  6.44D-01
 E= -1989.34303349459     Delta-E=       -0.007164020917 Rises=F Damp=F
 DIIS: error= 8.02D-04 at cycle   5 NSaved=   5.
 NSaved= 5 IEnMin= 5 EnMin= -1989.34303349459     IErMin= 5 ErrMin= 8.02D-04
 ErrMax= 8.02D-04  0.00D+00 EMaxC= 1.00D-01 BMatC= 6.18D-04 BMatP= 1.03D-02
 IDIUse=3 WtCom= 9.92D-01 WtEn= 8.02D-03
 Coeff-Com:  0.362D-03 0.393D-01 0.147D+00 0.328D+00 0.485D+00
 Coeff-En:   0.000D+00 0.000D+00 0.000D+00 0.000D+00 0.100D+01
 Coeff:      0.360D-03 0.390D-01 0.146D+00 0.325D+00 0.489D+00
 Gap=     0.255 Goal=   None    Shift=    0.000
 RMSDP=3.87D-05 MaxDP=3.51D-03 DE=-7.16D-03 OVMax= 5.96D-03

 Cycle   6  Pass 1  IDiag  1:
 RMSU=  2.29D-05    CP:  9.97D-01  7.27D-01  6.08D-01  6.62D-01  6.21D-01
 E= -1989.34348020227     Delta-E=       -0.000446707680 Rises=F Damp=F
 DIIS: error= 1.13D-04 at cycle   6 NSaved=   6.
 NSaved= 6 IEnMin= 6 EnMin= -1989.34348020227     IErMin= 6 ErrMin= 1.13D-04
 ErrMax= 1.13D-04  0.00D+00 EMaxC= 1.00D-01 BMatC= 2.31D-05 BMatP= 6.18D-04
 IDIUse=3 WtCom= 9.99D-01 WtEn= 1.13D-03
 Coeff-Com: -0.528D-03 0.353D-02 0.190D-01 0.526D-01 0.185D+00 0.741D+00
 Coeff-En:   0.000D+00 0.000D+00 0.000D+00 0.000D+00 0.000D+00 0.100D+01
 Coeff:     -0.527D-03 0.352D-02 0.189D-01 0.526D-01 0.184D+00 0.741D+00
 Gap=     0.256 Goal=   None    Shift=    0.000
 RMSDP=1.21D-05 MaxDP=6.62D-04 DE=-4.47D-04 OVMax= 9.97D-04

 Cycle   7  Pass 1  IDiag  1:
 RMSU=  8.38D-06    CP:  9.97D-01  7.27D-01  6.11D-01  6.77D-01  7.02D-01
                    CP:  9.08D-01
 E= -1989.34349742592     Delta-E=       -0.000017223650 Rises=F Damp=F
 DIIS: error= 4.00D-05 at cycle   7 NSaved=   7.
 NSaved= 7 IEnMin= 7 EnMin= -1989.34349742592     IErMin= 7 ErrMin= 4.00D-05
 ErrMax= 4.00D-05  0.00D+00 EMaxC= 1.00D-01 BMatC= 4.26D-06 BMatP= 2.31D-05
 IDIUse=1 WtCom= 1.00D+00 WtEn= 0.00D+00
 Coeff-Com: -0.228D-03-0.382D-02-0.111D-01-0.199D-01 0.283D-01 0.357D+00
 Coeff-Com:  0.650D+00
 Coeff:     -0.228D-03-0.382D-02-0.111D-01-0.199D-01 0.283D-01 0.357D+00
 Coeff:      0.650D+00
 Gap=     0.256 Goal=   None    Shift=    0.000
 RMSDP=3.87D-06 MaxDP=2.72D-04 DE=-1.72D-05 OVMax= 4.15D-04

 Cycle   8  Pass 1  IDiag  1:
 RMSU=  2.46D-06    CP:  9.97D-01  7.27D-01  6.11D-01  6.77D-01  7.18D-01
                    CP:  1.01D+00  8.36D-01
 E= -1989.34350101051     Delta-E=       -0.000003584593 Rises=F Damp=F
 DIIS: error= 1.23D-05 at cycle   8 NSaved=   8.
 NSaved= 8 IEnMin= 8 EnMin= -1989.34350101051     IErMin= 8 ErrMin= 1.23D-05
 ErrMax= 1.23D-05  0.00D+00 EMaxC= 1.00D-01 BMatC= 2.23D-07 BMatP= 4.26D-06
 IDIUse=1 WtCom= 1.00D+00 WtEn= 0.00D+00
 Coeff-Com: -0.423D-04-0.168D-02-0.541D-02-0.118D-01-0.171D-02 0.676D-01
 Coeff-Com:  0.233D+00 0.720D+00
 Coeff:     -0.423D-04-0.168D-02-0.541D-02-0.118D-01-0.171D-02 0.676D-01
 Coeff:      0.233D+00 0.720D+00
 Gap=     0.256 Goal=   None    Shift=    0.000
 RMSDP=1.23D-06 MaxDP=6.79D-05 DE=-3.58D-06 OVMax= 1.26D-04

 Cycle   9  Pass 1  IDiag  1:
 RMSU=  8.61D-07    CP:  9.97D-01  7.27D-01  6.11D-01  6.77D-01  7.25D-01
                    CP:  1.02D+00  8.91D-01  1.04D+00
 E= -1989.34350122982     Delta-E=       -0.000000219310 Rises=F Damp=F
 DIIS: error= 4.50D-06 at cycle   9 NSaved=   9.
 NSaved= 9 IEnMin= 9 EnMin= -1989.34350122982     IErMin= 9 ErrMin= 4.50D-06
 ErrMax= 4.50D-06  0.00D+00 EMaxC= 1.00D-01 BMatC= 3.09D-08 BMatP= 2.23D-07
 IDIUse=1 WtCom= 1.00D+00 WtEn= 0.00D+00
 Coeff-Com:  0.115D-04-0.112D-03-0.483D-03-0.188D-02-0.354D-02-0.283D-01
 Coeff-Com: -0.279D-02 0.251D+00 0.786D+00
 Coeff:      0.115D-04-0.112D-03-0.483D-03-0.188D-02-0.354D-02-0.283D-01
 Coeff:     -0.279D-02 0.251D+00 0.786D+00
 Gap=     0.256 Goal=   None    Shift=    0.000
 RMSDP=6.09D-07 MaxDP=5.21D-05 DE=-2.19D-07 OVMax= 6.51D-05

 Cycle  10  Pass 1  IDiag  1:
 RMSU=  3.32D-07    CP:  9.97D-01  7.27D-01  6.12D-01  6.77D-01  7.28D-01
                    CP:  1.03D+00  9.22D-01  1.15D+00  9.84D-01
 E= -1989.34350126840     Delta-E=       -0.000000038582 Rises=F Damp=F
 DIIS: error= 1.92D-06 at cycle  10 NSaved=  10.
 NSaved=10 IEnMin=10 EnMin= -1989.34350126840     IErMin=10 ErrMin= 1.92D-06
 ErrMax= 1.92D-06  0.00D+00 EMaxC= 1.00D-01 BMatC= 3.77D-09 BMatP= 3.09D-08
 IDIUse=1 WtCom= 1.00D+00 WtEn= 0.00D+00
 Coeff-Com:  0.110D-04 0.181D-03 0.533D-03 0.803D-03-0.513D-03-0.195D-01
 Coeff-Com: -0.303D-01-0.145D-01 0.275D+00 0.788D+00
 Coeff:      0.110D-04 0.181D-03 0.533D-03 0.803D-03-0.513D-03-0.195D-01
 Coeff:     -0.303D-01-0.145D-01 0.275D+00 0.788D+00
 Gap=     0.256 Goal=   None    Shift=    0.000
 RMSDP=2.19D-07 MaxDP=1.44D-05 DE=-3.86D-08 OVMax= 3.39D-05

 Cycle  11  Pass 1  IDiag  1:
 RMSU=  1.06D-07    CP:  9.97D-01  7.27D-01  6.12D-01  6.77D-01  7.29D-01
                    CP:  1.03D+00  9.32D-01  1.19D+00  1.11D+00  9.62D-01
 E= -1989.34350127288     Delta-E=       -0.000000004480 Rises=F Damp=F
 DIIS: error= 9.94D-07 at cycle  11 NSaved=  11.
 NSaved=11 IEnMin=11 EnMin= -1989.34350127288     IErMin=11 ErrMin= 9.94D-07
 ErrMax= 9.94D-07  0.00D+00 EMaxC= 1.00D-01 BMatC= 8.39D-10 BMatP= 3.77D-09
 IDIUse=1 WtCom= 1.00D+00 WtEn= 0.00D+00
 Coeff-Com:  0.491D-05 0.110D-03 0.337D-03 0.605D-03 0.192D-03-0.798D-02
 Coeff-Com: -0.155D-01-0.296D-01 0.783D-01 0.419D+00 0.555D+00
 Coeff:      0.491D-05 0.110D-03 0.337D-03 0.605D-03 0.192D-03-0.798D-02
 Coeff:     -0.155D-01-0.296D-01 0.783D-01 0.419D+00 0.555D+00
 Gap=     0.256 Goal=   None    Shift=    0.000
 RMSDP=6.37D-08 MaxDP=6.11D-06 DE=-4.48D-09 OVMax= 1.06D-05

 Cycle  12  Pass 1  IDiag  1:
 RMSU=  4.27D-08    CP:  9.97D-01  7.27D-01  6.12D-01  6.77D-01  7.29D-01
                    CP:  1.03D+00  9.34D-01  1.20D+00  1.14D+00  1.04D+00
                    CP:  8.32D-01
 E= -1989.34350127350     Delta-E=       -0.000000000619 Rises=F Damp=F
 DIIS: error= 3.45D-07 at cycle  12 NSaved=  12.
 NSaved=12 IEnMin=12 EnMin= -1989.34350127350     IErMin=12 ErrMin= 3.45D-07
 ErrMax= 3.45D-07  0.00D+00 EMaxC= 1.00D-01 BMatC= 9.23D-11 BMatP= 8.39D-10
 IDIUse=1 WtCom= 1.00D+00 WtEn= 0.00D+00
 Coeff-Com: -0.151D-06 0.141D-04 0.479D-04 0.115D-03 0.294D-03 0.407D-03
 Coeff-Com: -0.570D-03-0.107D-01-0.220D-01 0.252D-01 0.247D+00 0.760D+00
 Coeff:     -0.151D-06 0.141D-04 0.479D-04 0.115D-03 0.294D-03 0.407D-03
 Coeff:     -0.570D-03-0.107D-01-0.220D-01 0.252D-01 0.247D+00 0.760D+00
 Gap=     0.256 Goal=   None    Shift=    0.000
 RMSDP=2.49D-08 MaxDP=2.38D-06 DE=-6.19D-10 OVMax= 5.06D-06

 Cycle  13  Pass 1  IDiag  1:
 RMSU=  1.35D-08    CP:  9.97D-01  7.27D-01  6.12D-01  6.77D-01  7.29D-01
                    CP:  1.03D+00  9.34D-01  1.20D+00  1.15D+00  1.08D+00
                    CP:  9.47D-01  9.07D-01
 E= -1989.34350127339     Delta-E=        0.000000000114 Rises=F Damp=F
 DIIS: error= 9.74D-08 at cycle  13 NSaved=  13.
 NSaved=13 IEnMin=12 EnMin= -1989.34350127350     IErMin=13 ErrMin= 9.74D-08
 ErrMax= 9.74D-08  0.00D+00 EMaxC= 1.00D-01 BMatC= 9.91D-12 BMatP= 9.23D-11
 IDIUse=1 WtCom= 1.00D+00 WtEn= 0.00D+00
 Coeff-Com: -0.524D-06-0.443D-05-0.113D-04-0.989D-05 0.118D-03 0.892D-03
 Coeff-Com:  0.126D-02-0.184D-02-0.171D-01-0.307D-01 0.476D-01 0.324D+00
 Coeff-Com:  0.676D+00
 Coeff:     -0.524D-06-0.443D-05-0.113D-04-0.989D-05 0.118D-03 0.892D-03
 Coeff:      0.126D-02-0.184D-02-0.171D-01-0.307D-01 0.476D-01 0.324D+00
 Coeff:      0.676D+00
 Gap=     0.256 Goal=   None    Shift=    0.000
 RMSDP=8.18D-09 MaxDP=6.10D-07 DE= 1.14D-10 OVMax= 9.87D-07

 Error on total polarization charges =  0.00377
 SCF Done:  E(RCAM-B3LYP) =  -1989.34350127     A.U. after   13 cycles
            NFock= 13  Conv=0.82D-08     -V/T= 2.0076
 KE= 1.974313149126D+03 PE=-1.228324994216D+04 EE= 4.521738671779D+03
 Leave Link  502 at Mon Feb  3 21:47:36 2025, MaxMem=  5368709120 cpu:       994.8
 (Enter /home/k0335/k033513/app/g09/l601.exe)
 Copying SCF densities to generalized density rwf, IOpCl= 0 IROHF=0.

 **********************************************************************

            Population analysis using the SCF density.

 **********************************************************************

 Alpha  occ. eigenvalues --  -24.84295 -24.82644 -24.82622 -24.82574 -24.82567
 Alpha  occ. eigenvalues --  -24.82495 -24.82194 -24.82024 -24.81849 -24.81613
 Alpha  occ. eigenvalues --  -19.31547 -19.30076 -19.25494 -19.21766 -14.45420
 Alpha  occ. eigenvalues --  -14.38898 -10.52539 -10.49374 -10.48961 -10.47821
 Alpha  occ. eigenvalues --  -10.46960 -10.44490 -10.42709 -10.39809 -10.30010
 Alpha  occ. eigenvalues --  -10.28166 -10.27621 -10.27251 -10.24994 -10.24948
 Alpha  occ. eigenvalues --  -10.24814  -1.40543  -1.38620  -1.38081  -1.37268
 Alpha  occ. eigenvalues --   -1.35438  -1.33720  -1.32610  -1.31727  -1.31097
 Alpha  occ. eigenvalues --   -1.30988  -1.22088  -1.19761  -1.13781  -1.12371
 Alpha  occ. eigenvalues --   -1.01862  -0.99727  -0.97535  -0.91062  -0.87888
 Alpha  occ. eigenvalues --   -0.87610  -0.84302  -0.82868  -0.81033  -0.77716
 Alpha  occ. eigenvalues --   -0.76561  -0.74213  -0.73771  -0.71321  -0.70774
 Alpha  occ. eigenvalues --   -0.70550  -0.69562  -0.68784  -0.67908  -0.66839
 Alpha  occ. eigenvalues --   -0.66373  -0.66241  -0.66036  -0.65119  -0.64371
 Alpha  occ. eigenvalues --   -0.64037  -0.63307  -0.62291  -0.59623  -0.58522
 Alpha  occ. eigenvalues --   -0.57859  -0.57481  -0.56704  -0.55955  -0.55746
 Alpha  occ. eigenvalues --   -0.55714  -0.55366  -0.55332  -0.54422  -0.54211
 Alpha  occ. eigenvalues --   -0.53853  -0.53131  -0.52721  -0.52512  -0.52190
 Alpha  occ. eigenvalues --   -0.51595  -0.51481  -0.51313  -0.50946  -0.50671
 Alpha  occ. eigenvalues --   -0.50251  -0.50079  -0.49546  -0.49240  -0.49113
 Alpha  occ. eigenvalues --   -0.48294  -0.47974  -0.47833  -0.45969  -0.45910
 Alpha  occ. eigenvalues --   -0.45728  -0.45322  -0.44238  -0.43926  -0.43460
 Alpha  occ. eigenvalues --   -0.42416  -0.41985  -0.41164  -0.40360  -0.38719
 Alpha  occ. eigenvalues --   -0.37722  -0.36961  -0.36594  -0.34543  -0.33476
 Alpha  occ. eigenvalues --   -0.25540
 Alpha virt. eigenvalues --    0.00073   0.02650   0.04374   0.07607   0.11212
 Alpha virt. eigenvalues --    0.12014   0.12139   0.13364   0.14207   0.14848
 Alpha virt. eigenvalues --    0.15681   0.16847   0.17463   0.18115   0.18533
 Alpha virt. eigenvalues --    0.19842   0.20157   0.21202   0.21598   0.21844
 Alpha virt. eigenvalues --    0.21983   0.22283   0.23729   0.23936   0.24161
 Alpha virt. eigenvalues --    0.24912   0.25995   0.26209   0.26933   0.27433
 Alpha virt. eigenvalues --    0.27741   0.28496   0.28754   0.29297   0.29846
 Alpha virt. eigenvalues --    0.30296   0.31014   0.31642   0.31853   0.32661
 Alpha virt. eigenvalues --    0.33876   0.34349   0.35176   0.36262   0.37795
 Alpha virt. eigenvalues --    0.38081   0.38644   0.40159   0.41199   0.44328
 Alpha virt. eigenvalues --    0.48344   0.50846   0.51457   0.53147   0.54747
 Alpha virt. eigenvalues --    0.55735   0.56196   0.56584   0.56945   0.57773
 Alpha virt. eigenvalues --    0.57980   0.59029   0.59820   0.60723   0.61409
 Alpha virt. eigenvalues --    0.62035   0.62609   0.62949   0.64223   0.64890
 Alpha virt. eigenvalues --    0.65238   0.66204   0.66463   0.67801   0.68212
 Alpha virt. eigenvalues --    0.69574   0.70290   0.70668   0.71361   0.71961
 Alpha virt. eigenvalues --    0.72898   0.73675   0.74070   0.75141   0.75794
 Alpha virt. eigenvalues --    0.77093   0.77234   0.79609   0.80237   0.80727
 Alpha virt. eigenvalues --    0.81848   0.82982   0.85420   0.85757   0.86573
 Alpha virt. eigenvalues --    0.86858   0.87203   0.88314   0.88820   0.89263
 Alpha virt. eigenvalues --    0.90025   0.91142   0.91561   0.92226   0.93066
 Alpha virt. eigenvalues --    0.94107   0.94259   0.94805   0.95985   0.96884
 Alpha virt. eigenvalues --    0.97141   0.97330   0.97630   0.98162   0.99738
 Alpha virt. eigenvalues --    1.00074   1.01195   1.01861   1.02672   1.03771
 Alpha virt. eigenvalues --    1.04470   1.05179   1.05813   1.06510   1.06923
 Alpha virt. eigenvalues --    1.08050   1.08545   1.09331   1.10734   1.11749
 Alpha virt. eigenvalues --    1.12949   1.13120   1.14641   1.15215   1.16722
 Alpha virt. eigenvalues --    1.16939   1.18739   1.20409   1.20625   1.20992
 Alpha virt. eigenvalues --    1.22264   1.23705   1.25380   1.27161   1.27700
 Alpha virt. eigenvalues --    1.29198   1.29511   1.30242   1.31596   1.32377
 Alpha virt. eigenvalues --    1.33440   1.33884   1.34240   1.35450   1.35877
 Alpha virt. eigenvalues --    1.36770   1.37548   1.37852   1.39209   1.40006
 Alpha virt. eigenvalues --    1.40373   1.40942   1.41901   1.42094   1.42731
 Alpha virt. eigenvalues --    1.43715   1.44130   1.44507   1.45518   1.47548
 Alpha virt. eigenvalues --    1.49286   1.49415   1.49793   1.50412   1.51460
 Alpha virt. eigenvalues --    1.52233   1.52837   1.55000   1.55242   1.55671
 Alpha virt. eigenvalues --    1.56757   1.57561   1.58544   1.59029   1.60923
 Alpha virt. eigenvalues --    1.61142   1.62653   1.63101   1.63883   1.64767
 Alpha virt. eigenvalues --    1.65830   1.66604   1.68018   1.68342   1.68838
 Alpha virt. eigenvalues --    1.69667   1.72080   1.72263   1.74111   1.74845
 Alpha virt. eigenvalues --    1.75114   1.75530   1.77011   1.77441   1.77950
 Alpha virt. eigenvalues --    1.79106   1.80160   1.81103   1.81513   1.81925
 Alpha virt. eigenvalues --    1.83358   1.84329   1.84530   1.85893   1.86129
 Alpha virt. eigenvalues --    1.86148   1.86861   1.87187   1.87595   1.88562
 Alpha virt. eigenvalues --    1.89537   1.89849   1.90528   1.90715   1.91199
 Alpha virt. eigenvalues --    1.91889   1.92553   1.92836   1.93562   1.94556
 Alpha virt. eigenvalues --    1.94704   1.95633   1.96896   1.97522   1.97888
 Alpha virt. eigenvalues --    1.98382   1.99496   2.00959   2.01402   2.02298
 Alpha virt. eigenvalues --    2.03217   2.03488   2.03800   2.04636   2.04895
 Alpha virt. eigenvalues --    2.05458   2.05947   2.06406   2.07179   2.07459
 Alpha virt. eigenvalues --    2.08643   2.08856   2.09033   2.09406   2.10175
 Alpha virt. eigenvalues --    2.10347   2.11108   2.12861   2.12926   2.13759
 Alpha virt. eigenvalues --    2.15046   2.15835   2.16575   2.17514   2.18694
 Alpha virt. eigenvalues --    2.19526   2.19977   2.21450   2.22629   2.22781
 Alpha virt. eigenvalues --    2.23284   2.23741   2.24702   2.25368   2.26800
 Alpha virt. eigenvalues --    2.28365   2.29333   2.29492   2.29980   2.30981
 Alpha virt. eigenvalues --    2.31612   2.32467   2.33153   2.33603   2.34412
 Alpha virt. eigenvalues --    2.34684   2.35300   2.35459   2.36875   2.38486
 Alpha virt. eigenvalues --    2.38861   2.39223   2.40482   2.41045   2.41839
 Alpha virt. eigenvalues --    2.42526   2.43193   2.44026   2.44829   2.45275
 Alpha virt. eigenvalues --    2.45597   2.47147   2.47660   2.50478   2.51385
 Alpha virt. eigenvalues --    2.53121   2.53920   2.54973   2.55858   2.57278
 Alpha virt. eigenvalues --    2.57908   2.58855   2.60451   2.61521   2.61992
 Alpha virt. eigenvalues --    2.62817   2.63637   2.64481   2.64789   2.66520
 Alpha virt. eigenvalues --    2.67185   2.68371   2.69562   2.70417   2.71202
 Alpha virt. eigenvalues --    2.73146   2.73673   2.74664   2.75909   2.77287
 Alpha virt. eigenvalues --    2.78078   2.79495   2.80896   2.82010   2.82307
 Alpha virt. eigenvalues --    2.82918   2.83290   2.83976   2.85138   2.85928
 Alpha virt. eigenvalues --    2.86473   2.87923   2.89930   2.90243   2.90878
 Alpha virt. eigenvalues --    2.92228   2.92858   2.94236   2.94331   2.94702
 Alpha virt. eigenvalues --    2.95045   2.95841   2.97417   2.97664   2.98975
 Alpha virt. eigenvalues --    3.00229   3.01397   3.01774   3.03828   3.06398
 Alpha virt. eigenvalues --    3.07001   3.08319   3.09654   3.09883   3.11133
 Alpha virt. eigenvalues --    3.13034   3.15252   3.15656   3.19385   3.20849
 Alpha virt. eigenvalues --    3.22822   3.24526   3.28935   3.30162   3.30304
 Alpha virt. eigenvalues --    3.31121   3.32715   3.33685   3.35230   3.36226
 Alpha virt. eigenvalues --    3.38025   3.40603   3.43794   3.45177   3.47202
 Alpha virt. eigenvalues --    3.50001   3.50872   3.54213   3.55321   3.59591
 Alpha virt. eigenvalues --    3.61477   3.63586   3.65324   3.97506   4.10783
 Alpha virt. eigenvalues --    4.19681   4.21411   4.29544   4.34653   4.37099
 Alpha virt. eigenvalues --    4.39376   4.40062   4.47218   4.51330   4.51512
 Alpha virt. eigenvalues --    4.54200   4.65585   4.68041   4.69109   4.70231
 Alpha virt. eigenvalues --    4.76422   4.77303   4.91593   4.93018   4.96392
 Alpha virt. eigenvalues --    5.07484   5.33990   5.46247   5.50948   5.68053
 Alpha virt. eigenvalues --    5.93124   6.32729   6.71813   7.26060
          Condensed to atoms (all electrons):
               1          2          3          4          5          6
     1  F    9.092990   0.267672  -0.041545  -0.025926   0.000356  -0.000061
     2  C    0.267672   4.407521   0.306295   0.196306  -0.021693  -0.021714
     3  F   -0.041545   0.306295   9.039889  -0.022515  -0.000178  -0.000115
     4  C   -0.025926   0.196306  -0.022515   4.798350   0.234336   0.277778
     5  F    0.000356  -0.021693  -0.000178   0.234336   9.116293  -0.041560
     6  F   -0.000061  -0.021714  -0.000115   0.277778  -0.041560   9.059656
     7  C   -0.000903  -0.092597   0.002448   0.144123  -0.025355  -0.034393
     8  F   -0.000002   0.001943  -0.000001  -0.011562  -0.001096  -0.000129
     9  C    0.009430   0.000388   0.000033  -0.036438   0.002090  -0.003639
    10  F    0.000000  -0.000028   0.000000   0.001791  -0.000001   0.000003
    11  C   -0.001130   0.000015   0.000000  -0.012761  -0.000049   0.019575
    12  O    0.000306  -0.000360   0.000000   0.004225   0.000000  -0.003457
    13  O    0.000000   0.000014   0.000000  -0.001322   0.000001  -0.002045
    14  F   -0.007819   0.008543   0.000000   0.002760  -0.000001  -0.000189
    15  C   -0.001138  -0.018297   0.000193  -0.032388   0.005864   0.001665
    16  F   -0.000005   0.003203  -0.000035  -0.003215  -0.001095   0.000000
    17  C   -0.000051  -0.001804  -0.000035   0.004121   0.000064  -0.000026
    18  F    0.000000  -0.000127   0.000000   0.000063   0.000000   0.000000
    19  C    0.000002   0.000064  -0.000002  -0.000245   0.000001   0.000000
    20  N    0.000000   0.000004   0.000000  -0.000001   0.000000   0.000000
    21  C    0.000000   0.000000   0.000000   0.000000   0.000000   0.000000
    22  C    0.000000   0.000000   0.000000   0.000000   0.000000   0.000000
    23  N    0.000000   0.000000   0.000000   0.000000   0.000000   0.000000
    24  C    0.000000   0.000000   0.000000   0.000000   0.000000   0.000000
    25  C    0.000000   0.000000   0.000000   0.000000   0.000000   0.000000
    26  C    0.000000   0.000000   0.000000   0.000000   0.000000   0.000000
    27  C    0.000000   0.000000   0.000000   0.000000   0.000000   0.000000
    28  C    0.000000   0.000000   0.000000   0.000000   0.000000   0.000000
    29  O    0.000000   0.000172   0.000000  -0.000011   0.000000   0.000000
    30  F    0.000000   0.000005   0.000000   0.000193   0.000000   0.000000
    31  O   -0.047800   0.189929  -0.041527  -0.038686  -0.000712   0.000723
    32  H    0.000005   0.000002   0.000000  -0.000071   0.000000   0.000143
    33  H    0.000000   0.000000   0.000000   0.000000   0.000000   0.000000
    34  H    0.000000   0.000000   0.000000   0.000000   0.000000   0.000000
    35  H    0.000000   0.000000   0.000000   0.000000   0.000000   0.000000
    36  H    0.000000   0.000000   0.000000   0.000000   0.000000   0.000000
    37  H    0.000000   0.000000   0.000000   0.000000   0.000000   0.000000
    38  H    0.000000   0.000000   0.000000   0.000000   0.000000   0.000000
    39  H    0.000000   0.000000   0.000000   0.000000   0.000000   0.000000
    40  H    0.000000   0.000000   0.000000   0.000000   0.000000   0.000000
    41  H    0.000000   0.000000   0.000000   0.000000   0.000000   0.000000
    42  H    0.000000   0.000000   0.000000   0.000000   0.000000   0.000000
    43  H    0.000000   0.000000   0.000000   0.000000   0.000000   0.000000
    44  H    0.000000   0.000000   0.000000   0.000000   0.000000   0.000000
    45  H    0.000000   0.000000   0.000000   0.000000   0.000000   0.000000
    46  H    0.000000   0.000000   0.000000   0.000000   0.000000   0.000000
    47  H    0.000000   0.000000   0.000000   0.000000   0.000000   0.000000
               7          8          9         10         11         12
     1  F   -0.000903  -0.000002   0.009430   0.000000  -0.001130   0.000306
     2  C   -0.092597   0.001943   0.000388  -0.000028   0.000015  -0.000360
     3  F    0.002448  -0.000001   0.000033   0.000000   0.000000   0.000000
     4  C    0.144123  -0.011562  -0.036438   0.001791  -0.012761   0.004225
     5  F   -0.025355  -0.001096   0.002090  -0.000001  -0.000049   0.000000
     6  F   -0.034393  -0.000129  -0.003639   0.000003   0.019575  -0.003457
     7  C    5.468968   0.223321   0.178690  -0.023888  -0.054056  -0.001870
     8  F    0.223321   9.119034  -0.026427  -0.000442   0.002064   0.000038
     9  C    0.178690  -0.026427   4.669017   0.242658   0.241118  -0.070381
    10  F   -0.023888  -0.000442   0.242658   9.114983  -0.025174   0.000584
    11  C   -0.054056   0.002064   0.241118  -0.025174   4.543895   0.246442
    12  O   -0.001870   0.000038  -0.070381   0.000584   0.246442   8.105976
    13  O    0.006574  -0.000704  -0.055446  -0.001499   0.557407  -0.095378
    14  F   -0.042229   0.000349   0.245250  -0.038557  -0.028788   0.002788
    15  C    0.158910  -0.020756  -0.041307  -0.007725   0.005322  -0.000091
    16  F   -0.023876  -0.000566   0.001897   0.000004  -0.000032   0.000000
    17  C   -0.032818  -0.003222  -0.004002   0.016429   0.000062  -0.000002
    18  F   -0.007394   0.000010   0.017072  -0.005826   0.000151   0.000000
    19  C    0.004907  -0.000063   0.000112   0.000174   0.000005   0.000000
    20  N   -0.000199   0.000002  -0.000005   0.000001   0.000000   0.000000
    21  C    0.000002   0.000000   0.000000   0.000000   0.000000   0.000000
    22  C    0.000000   0.000000   0.000000   0.000000   0.000000   0.000000
    23  N    0.000000   0.000000   0.000000   0.000000   0.000000   0.000000
    24  C    0.000000   0.000000   0.000000   0.000000   0.000000   0.000000
    25  C    0.000000   0.000000   0.000000   0.000000   0.000000   0.000000
    26  C    0.000000   0.000000   0.000000   0.000000   0.000000   0.000000
    27  C    0.000000   0.000000   0.000000   0.000000   0.000000   0.000000
    28  C    0.000000   0.000000   0.000000   0.000000   0.000000   0.000000
    29  O    0.000036   0.000000  -0.000006   0.000000   0.000000   0.000000
    30  F    0.007106   0.000414  -0.004137  -0.001153   0.000004   0.000000
    31  O   -0.029072   0.000745  -0.000302   0.000033  -0.000032   0.000000
    32  H   -0.000242   0.000003   0.007857  -0.000060  -0.012318   0.281233
    33  H   -0.000042   0.000002   0.000004   0.000003   0.000000   0.000000
    34  H    0.000000   0.000000   0.000000   0.000000   0.000000   0.000000
    35  H    0.000000   0.000000   0.000000   0.000000   0.000000   0.000000
    36  H    0.000000   0.000000   0.000000   0.000000   0.000000   0.000000
    37  H    0.000001   0.000000   0.000000   0.000000   0.000000   0.000000
    38  H    0.000000   0.000000   0.000000   0.000000   0.000000   0.000000
    39  H    0.000000   0.000000   0.000000   0.000000   0.000000   0.000000
    40  H    0.000000   0.000000   0.000000   0.000000   0.000000   0.000000
    41  H    0.000000   0.000000   0.000000   0.000000   0.000000   0.000000
    42  H    0.000000   0.000000   0.000000   0.000000   0.000000   0.000000
    43  H    0.000000   0.000000   0.000000   0.000000   0.000000   0.000000
    44  H    0.000000   0.000000   0.000000   0.000000   0.000000   0.000000
    45  H    0.000000   0.000000   0.000000   0.000000   0.000000   0.000000
    46  H    0.000000   0.000000   0.000000   0.000000   0.000000   0.000000
    47  H    0.000000   0.000000   0.000000   0.000000   0.000000   0.000000
              13         14         15         16         17         18
     1  F    0.000000  -0.007819  -0.001138  -0.000005  -0.000051   0.000000
     2  C    0.000014   0.008543  -0.018297   0.003203  -0.001804  -0.000127
     3  F    0.000000   0.000000   0.000193  -0.000035  -0.000035   0.000000
     4  C   -0.001322   0.002760  -0.032388  -0.003215   0.004121   0.000063
     5  F    0.000001  -0.000001   0.005864  -0.001095   0.000064   0.000000
     6  F   -0.002045  -0.000189   0.001665   0.000000  -0.000026   0.000000
     7  C    0.006574  -0.042229   0.158910  -0.023876  -0.032818  -0.007394
     8  F   -0.000704   0.000349  -0.020756  -0.000566  -0.003222   0.000010
     9  C   -0.055446   0.245250  -0.041307   0.001897  -0.004002   0.017072
    10  F   -0.001499  -0.038557  -0.007725   0.000004   0.016429  -0.005826
    11  C    0.557407  -0.028788   0.005322  -0.000032   0.000062   0.000151
    12  O   -0.095378   0.002788  -0.000091   0.000000  -0.000002   0.000000
    13  O    8.024716   0.000667   0.000034   0.000000  -0.000006   0.000000
    14  F    0.000667   9.118748   0.008012   0.000002  -0.002702  -0.001412
    15  C    0.000034   0.008012   4.976729   0.224314   0.201455  -0.030804
    16  F    0.000000   0.000002   0.224314   9.167731  -0.040440   0.000334
    17  C   -0.000006  -0.002702   0.201455  -0.040440   4.711939   0.244463
    18  F    0.000000  -0.001412  -0.030804   0.000334   0.244463   9.103877
    19  C    0.000000   0.000004  -0.057059   0.012854   0.281386  -0.019564
    20  N    0.000000   0.000000  -0.001949  -0.000533  -0.087199   0.000701
    21  C    0.000000   0.000000   0.000000  -0.000061   0.004270  -0.000022
    22  C    0.000000   0.000000   0.000044   0.000022  -0.000322   0.000000
    23  N    0.000000   0.000000   0.000000   0.000000   0.000002   0.000000
    24  C    0.000000   0.000000   0.000000   0.000000   0.000000   0.000000
    25  C    0.000000   0.000000   0.000000   0.000000   0.000000   0.000000
    26  C    0.000000   0.000000   0.000000   0.000000   0.000000   0.000000
    27  C    0.000000   0.000000   0.000000   0.000000   0.000000   0.000000
    28  C    0.000000   0.000000   0.000000   0.000000  -0.000001   0.000000
    29  O    0.000000   0.000000   0.006186  -0.000995  -0.057956  -0.001134
    30  F    0.000000   0.000009  -0.023760   0.000106   0.220675  -0.036389
    31  O    0.000000  -0.001727   0.171251  -0.055064  -0.032497   0.001517
    32  H    0.008519  -0.000074   0.000006   0.000000   0.000000   0.000000
    33  H    0.000000   0.000000   0.000650   0.000143  -0.002592   0.000238
    34  H    0.000000   0.000000  -0.000003  -0.000001  -0.000110   0.000000
    35  H    0.000000   0.000000  -0.000035   0.000000   0.000278  -0.000001
    36  H    0.000000   0.000000  -0.000009   0.000019   0.000031   0.000000
    37  H    0.000000   0.000000   0.000007   0.000114   0.000042   0.000000
    38  H    0.000000   0.000000   0.000000   0.000000   0.000000   0.000000
    39  H    0.000000   0.000000   0.000000   0.000000   0.000000   0.000000
    40  H    0.000000   0.000000   0.000000   0.000000   0.000000   0.000000
    41  H    0.000000   0.000000   0.000000   0.000000   0.000000   0.000000
    42  H    0.000000   0.000000   0.000000   0.000000   0.000000   0.000000
    43  H    0.000000   0.000000   0.000000   0.000000   0.000000   0.000000
    44  H    0.000000   0.000000   0.000000   0.000000   0.000000   0.000000
    45  H    0.000000   0.000000   0.000000   0.000000   0.000000   0.000000
    46  H    0.000000   0.000000   0.000000   0.000000   0.000000   0.000000
    47  H    0.000000   0.000000   0.000000   0.000000   0.000001   0.000000
              19         20         21         22         23         24
     1  F    0.000002   0.000000   0.000000   0.000000   0.000000   0.000000
     2  C    0.000064   0.000004   0.000000   0.000000   0.000000   0.000000
     3  F   -0.000002   0.000000   0.000000   0.000000   0.000000   0.000000
     4  C   -0.000245  -0.000001   0.000000   0.000000   0.000000   0.000000
     5  F    0.000001   0.000000   0.000000   0.000000   0.000000   0.000000
     6  F    0.000000   0.000000   0.000000   0.000000   0.000000   0.000000
     7  C    0.004907  -0.000199   0.000002   0.000000   0.000000   0.000000
     8  F   -0.000063   0.000002   0.000000   0.000000   0.000000   0.000000
     9  C    0.000112  -0.000005   0.000000   0.000000   0.000000   0.000000
    10  F    0.000174   0.000001   0.000000   0.000000   0.000000   0.000000
    11  C    0.000005   0.000000   0.000000   0.000000   0.000000   0.000000
    12  O    0.000000   0.000000   0.000000   0.000000   0.000000   0.000000
    13  O    0.000000   0.000000   0.000000   0.000000   0.000000   0.000000
    14  F    0.000004   0.000000   0.000000   0.000000   0.000000   0.000000
    15  C   -0.057059  -0.001949   0.000000   0.000044   0.000000   0.000000
    16  F    0.012854  -0.000533  -0.000061   0.000022   0.000000   0.000000
    17  C    0.281386  -0.087199   0.004270  -0.000322   0.000002   0.000000
    18  F   -0.019564   0.000701  -0.000022   0.000000   0.000000   0.000000
    19  C    4.521371   0.246352  -0.031246  -0.002980   0.000106   0.000003
    20  N    0.246352   7.044150   0.217703  -0.043252   0.003378   0.000119
    21  C   -0.031246   0.217703   4.940800   0.329754  -0.055789  -0.006953
    22  C   -0.002980  -0.043252   0.329754   4.822352   0.341361  -0.049445
    23  N    0.000106   0.003378  -0.055789   0.341361   6.888435   0.324044
    24  C    0.000003   0.000119  -0.006953  -0.049445   0.324044   4.773627
    25  C    0.000000   0.000000   0.000035   0.004184  -0.042934   0.383240
    26  C    0.000000   0.000000  -0.000065   0.000367  -0.013383  -0.046141
    27  C    0.000000   0.000004   0.000562   0.001343  -0.045500  -0.009968
    28  C   -0.000062  -0.000008  -0.004409  -0.044028   0.306298  -0.056108
    29  O    0.563949  -0.103121   0.006517  -0.003540   0.000011  -0.000001
    30  F   -0.030693  -0.001558   0.000245   0.000000   0.000000   0.000000
    31  O   -0.003763   0.000099  -0.000001   0.000000   0.000000   0.000000
    32  H    0.000000   0.000000   0.000000   0.000000   0.000000   0.000000
    33  H   -0.025563   0.341469  -0.024198   0.000631  -0.000055   0.000001
    34  H    0.005257  -0.033034   0.386512  -0.039573  -0.000412   0.001986
    35  H   -0.004137  -0.037744   0.392162  -0.040127  -0.000869  -0.000058
    36  H    0.000230   0.003531  -0.056186   0.386200  -0.038212  -0.003239
    37  H    0.005494  -0.004322  -0.049041   0.394621  -0.034472   0.004815
    38  H    0.000001   0.000015  -0.001358  -0.003793  -0.046054   0.391767
    39  H   -0.000011  -0.000322   0.004818  -0.003968  -0.061674   0.369997
    40  H    0.000000   0.000000   0.000011   0.000139   0.000654  -0.036005
    41  H    0.000000   0.000000   0.000005  -0.000136   0.003585  -0.029237
    42  H    0.000000   0.000000   0.000002  -0.000001   0.000034   0.004215
    43  H    0.000000   0.000000   0.000004   0.000006   0.000005  -0.000335
    44  H    0.000000   0.000000  -0.000052  -0.000073   0.004144   0.000092
    45  H   -0.000002   0.000020   0.001201   0.000022  -0.001732   0.003247
    46  H    0.000001   0.000006  -0.000246   0.002355  -0.057530   0.002275
    47  H    0.000033  -0.000292   0.000353  -0.006433  -0.037684   0.003828
              25         26         27         28         29         30
     1  F    0.000000   0.000000   0.000000   0.000000   0.000000   0.000000
     2  C    0.000000   0.000000   0.000000   0.000000   0.000172   0.000005
     3  F    0.000000   0.000000   0.000000   0.000000   0.000000   0.000000
     4  C    0.000000   0.000000   0.000000   0.000000  -0.000011   0.000193
     5  F    0.000000   0.000000   0.000000   0.000000   0.000000   0.000000
     6  F    0.000000   0.000000   0.000000   0.000000   0.000000   0.000000
     7  C    0.000000   0.000000   0.000000   0.000000   0.000036   0.007106
     8  F    0.000000   0.000000   0.000000   0.000000   0.000000   0.000414
     9  C    0.000000   0.000000   0.000000   0.000000  -0.000006  -0.004137
    10  F    0.000000   0.000000   0.000000   0.000000   0.000000  -0.001153
    11  C    0.000000   0.000000   0.000000   0.000000   0.000000   0.000004
    12  O    0.000000   0.000000   0.000000   0.000000   0.000000   0.000000
    13  O    0.000000   0.000000   0.000000   0.000000   0.000000   0.000000
    14  F    0.000000   0.000000   0.000000   0.000000   0.000000   0.000009
    15  C    0.000000   0.000000   0.000000   0.000000   0.006186  -0.023760
    16  F    0.000000   0.000000   0.000000   0.000000  -0.000995   0.000106
    17  C    0.000000   0.000000   0.000000  -0.000001  -0.057956   0.220675
    18  F    0.000000   0.000000   0.000000   0.000000  -0.001134  -0.036389
    19  C    0.000000   0.000000   0.000000  -0.000062   0.563949  -0.030693
    20  N    0.000000   0.000000   0.000004  -0.000008  -0.103121  -0.001558
    21  C    0.000035  -0.000065   0.000562  -0.004409   0.006517   0.000245
    22  C    0.004184   0.000367   0.001343  -0.044028  -0.003540   0.000000
    23  N   -0.042934  -0.013383  -0.045500   0.306298   0.000011   0.000000
    24  C    0.383240  -0.046141  -0.009968  -0.056108  -0.000001   0.000000
    25  C    4.933098   0.368036  -0.054479  -0.011083   0.000000   0.000000
    26  C    0.368036   4.911467   0.375996  -0.042993   0.000000   0.000000
    27  C   -0.054479   0.375996   4.947287   0.365981   0.000002   0.000000
    28  C   -0.011083  -0.042993   0.365981   4.803175  -0.000193   0.000000
    29  O    0.000000   0.000000   0.000002  -0.000193   8.081262   0.000769
    30  F    0.000000   0.000000   0.000000   0.000000   0.000769   9.144649
    31  O    0.000000   0.000000   0.000000   0.000000   0.001090   0.000635
    32  H    0.000000   0.000000   0.000000   0.000000   0.000000   0.000000
    33  H    0.000000   0.000000   0.000000   0.000002   0.002821   0.015683
    34  H   -0.000120  -0.000006   0.000167  -0.000431   0.000410  -0.000011
    35  H   -0.000007   0.000010  -0.000994   0.003641   0.007845  -0.000012
    36  H    0.000144   0.000004  -0.000277   0.005098   0.000012  -0.000002
    37  H   -0.000184  -0.000013  -0.000096  -0.005369   0.004175  -0.000001
    38  H   -0.023938   0.004911  -0.000123   0.005089   0.000000   0.000000
    39  H   -0.048682  -0.004693   0.002309  -0.001600   0.000000   0.000000
    40  H    0.383354  -0.038104  -0.000224   0.001582   0.000000   0.000000
    41  H    0.383260  -0.033858   0.004607  -0.000084   0.000000   0.000000
    42  H   -0.036809   0.390132  -0.034928  -0.002543   0.000000   0.000000
    43  H   -0.035393   0.387480  -0.035476   0.004653   0.000000   0.000000
    44  H    0.005133  -0.034424   0.378687  -0.026824   0.000000   0.000000
    45  H   -0.002404  -0.040933   0.385367  -0.039825  -0.000002   0.000000
    46  H    0.000866  -0.006110  -0.054445   0.397229  -0.000001   0.000000
    47  H   -0.000097   0.004917  -0.025949   0.387343   0.000742   0.000000
              31         32         33         34         35         36
     1  F   -0.047800   0.000005   0.000000   0.000000   0.000000   0.000000
     2  C    0.189929   0.000002   0.000000   0.000000   0.000000   0.000000
     3  F   -0.041527   0.000000   0.000000   0.000000   0.000000   0.000000
     4  C   -0.038686  -0.000071   0.000000   0.000000   0.000000   0.000000
     5  F   -0.000712   0.000000   0.000000   0.000000   0.000000   0.000000
     6  F    0.000723   0.000143   0.000000   0.000000   0.000000   0.000000
     7  C   -0.029072  -0.000242  -0.000042   0.000000   0.000000   0.000000
     8  F    0.000745   0.000003   0.000002   0.000000   0.000000   0.000000
     9  C   -0.000302   0.007857   0.000004   0.000000   0.000000   0.000000
    10  F    0.000033  -0.000060   0.000003   0.000000   0.000000   0.000000
    11  C   -0.000032  -0.012318   0.000000   0.000000   0.000000   0.000000
    12  O    0.000000   0.281233   0.000000   0.000000   0.000000   0.000000
    13  O    0.000000   0.008519   0.000000   0.000000   0.000000   0.000000
    14  F   -0.001727  -0.000074   0.000000   0.000000   0.000000   0.000000
    15  C    0.171251   0.000006   0.000650  -0.000003  -0.000035  -0.000009
    16  F   -0.055064   0.000000   0.000143  -0.000001   0.000000   0.000019
    17  C   -0.032497   0.000000  -0.002592  -0.000110   0.000278   0.000031
    18  F    0.001517   0.000000   0.000238   0.000000  -0.000001   0.000000
    19  C   -0.003763   0.000000  -0.025563   0.005257  -0.004137   0.000230
    20  N    0.000099   0.000000   0.341469  -0.033034  -0.037744   0.003531
    21  C   -0.000001   0.000000  -0.024198   0.386512   0.392162  -0.056186
    22  C    0.000000   0.000000   0.000631  -0.039573  -0.040127   0.386200
    23  N    0.000000   0.000000  -0.000055  -0.000412  -0.000869  -0.038212
    24  C    0.000000   0.000000   0.000001   0.001986  -0.000058  -0.003239
    25  C    0.000000   0.000000   0.000000  -0.000120  -0.000007   0.000144
    26  C    0.000000   0.000000   0.000000  -0.000006   0.000010   0.000004
    27  C    0.000000   0.000000   0.000000   0.000167  -0.000994  -0.000277
    28  C    0.000000   0.000000   0.000002  -0.000431   0.003641   0.005098
    29  O    0.001090   0.000000   0.002821   0.000410   0.007845   0.000012
    30  F    0.000635   0.000000   0.015683  -0.000011  -0.000012  -0.000002
    31  O    8.368454   0.000000  -0.000004   0.000000   0.000000   0.000000
    32  H    0.000000   0.353932   0.000000   0.000000   0.000000   0.000000
    33  H   -0.000004   0.000000   0.400502  -0.005289   0.003599   0.000959
    34  H    0.000000   0.000000  -0.005289   0.598314  -0.031300  -0.005351
    35  H    0.000000   0.000000   0.003599  -0.031300   0.564891   0.005148
    36  H    0.000000   0.000000   0.000959  -0.005351   0.005148   0.632773
    37  H    0.000001   0.000000  -0.000148   0.004859  -0.005391  -0.031950
    38  H    0.000000   0.000000  -0.000001   0.000193   0.000022   0.005565
    39  H    0.000000   0.000000   0.000018   0.000971   0.000192  -0.001790
    40  H    0.000000   0.000000   0.000000   0.000000   0.000000  -0.000030
    41  H    0.000000   0.000000   0.000000   0.000006  -0.000001  -0.000009
    42  H    0.000000   0.000000   0.000000   0.000000   0.000000   0.000000
    43  H    0.000000   0.000000   0.000000  -0.000003  -0.000003  -0.000001
    44  H    0.000000   0.000000   0.000000   0.000001   0.000062   0.000006
    45  H    0.000000   0.000000   0.000000   0.000029   0.000997  -0.000025
    46  H    0.000000   0.000000   0.000000  -0.000011  -0.000042  -0.000148
    47  H    0.000000   0.000000   0.000001   0.000094   0.001768   0.000159
              37         38         39         40         41         42
     1  F    0.000000   0.000000   0.000000   0.000000   0.000000   0.000000
     2  C    0.000000   0.000000   0.000000   0.000000   0.000000   0.000000
     3  F    0.000000   0.000000   0.000000   0.000000   0.000000   0.000000
     4  C    0.000000   0.000000   0.000000   0.000000   0.000000   0.000000
     5  F    0.000000   0.000000   0.000000   0.000000   0.000000   0.000000
     6  F    0.000000   0.000000   0.000000   0.000000   0.000000   0.000000
     7  C    0.000001   0.000000   0.000000   0.000000   0.000000   0.000000
     8  F    0.000000   0.000000   0.000000   0.000000   0.000000   0.000000
     9  C    0.000000   0.000000   0.000000   0.000000   0.000000   0.000000
    10  F    0.000000   0.000000   0.000000   0.000000   0.000000   0.000000
    11  C    0.000000   0.000000   0.000000   0.000000   0.000000   0.000000
    12  O    0.000000   0.000000   0.000000   0.000000   0.000000   0.000000
    13  O    0.000000   0.000000   0.000000   0.000000   0.000000   0.000000
    14  F    0.000000   0.000000   0.000000   0.000000   0.000000   0.000000
    15  C    0.000007   0.000000   0.000000   0.000000   0.000000   0.000000
    16  F    0.000114   0.000000   0.000000   0.000000   0.000000   0.000000
    17  C    0.000042   0.000000   0.000000   0.000000   0.000000   0.000000
    18  F    0.000000   0.000000   0.000000   0.000000   0.000000   0.000000
    19  C    0.005494   0.000001  -0.000011   0.000000   0.000000   0.000000
    20  N   -0.004322   0.000015  -0.000322   0.000000   0.000000   0.000000
    21  C   -0.049041  -0.001358   0.004818   0.000011   0.000005   0.000002
    22  C    0.394621  -0.003793  -0.003968   0.000139  -0.000136  -0.000001
    23  N   -0.034472  -0.046054  -0.061674   0.000654   0.003585   0.000034
    24  C    0.004815   0.391767   0.369997  -0.036005  -0.029237   0.004215
    25  C   -0.000184  -0.023938  -0.048682   0.383354   0.383260  -0.036809
    26  C   -0.000013   0.004911  -0.004693  -0.038104  -0.033858   0.390132
    27  C   -0.000096  -0.000123   0.002309  -0.000224   0.004607  -0.034928
    28  C   -0.005369   0.005089  -0.001600   0.001582  -0.000084  -0.002543
    29  O    0.004175   0.000000   0.000000   0.000000   0.000000   0.000000
    30  F   -0.000001   0.000000   0.000000   0.000000   0.000000   0.000000
    31  O    0.000001   0.000000   0.000000   0.000000   0.000000   0.000000
    32  H    0.000000   0.000000   0.000000   0.000000   0.000000   0.000000
    33  H   -0.000148  -0.000001   0.000018   0.000000   0.000000   0.000000
    34  H    0.004859   0.000193   0.000971   0.000000   0.000006   0.000000
    35  H   -0.005391   0.000022   0.000192   0.000000  -0.000001   0.000000
    36  H   -0.031950   0.005565  -0.001790  -0.000030  -0.000009   0.000000
    37  H    0.589669   0.000166  -0.000324  -0.000010   0.000003   0.000000
    38  H    0.000166   0.635384  -0.055971  -0.006711  -0.002748  -0.000164
    39  H   -0.000324  -0.055971   0.723881   0.007011  -0.001678  -0.000055
    40  H   -0.000010  -0.006711   0.007011   0.620137  -0.033142  -0.011266
    41  H    0.000003  -0.002748  -0.001678  -0.033142   0.619817   0.002620
    42  H    0.000000  -0.000164  -0.000055  -0.011266   0.002620   0.625637
    43  H    0.000000  -0.000137   0.001964   0.005335  -0.011623  -0.035734
    44  H    0.000007   0.000006  -0.000227  -0.000184  -0.000144  -0.009148
    45  H    0.000054   0.000023  -0.002476  -0.000201  -0.000012   0.005571
    46  H    0.001129   0.000082  -0.000769  -0.001310  -0.000041   0.002786
    47  H    0.000965  -0.000189   0.000402   0.000027   0.000006  -0.000108
              43         44         45         46         47
     1  F    0.000000   0.000000   0.000000   0.000000   0.000000
     2  C    0.000000   0.000000   0.000000   0.000000   0.000000
     3  F    0.000000   0.000000   0.000000   0.000000   0.000000
     4  C    0.000000   0.000000   0.000000   0.000000   0.000000
     5  F    0.000000   0.000000   0.000000   0.000000   0.000000
     6  F    0.000000   0.000000   0.000000   0.000000   0.000000
     7  C    0.000000   0.000000   0.000000   0.000000   0.000000
     8  F    0.000000   0.000000   0.000000   0.000000   0.000000
     9  C    0.000000   0.000000   0.000000   0.000000   0.000000
    10  F    0.000000   0.000000   0.000000   0.000000   0.000000
    11  C    0.000000   0.000000   0.000000   0.000000   0.000000
    12  O    0.000000   0.000000   0.000000   0.000000   0.000000
    13  O    0.000000   0.000000   0.000000   0.000000   0.000000
    14  F    0.000000   0.000000   0.000000   0.000000   0.000000
    15  C    0.000000   0.000000   0.000000   0.000000   0.000000
    16  F    0.000000   0.000000   0.000000   0.000000   0.000000
    17  C    0.000000   0.000000   0.000000   0.000000   0.000001
    18  F    0.000000   0.000000   0.000000   0.000000   0.000000
    19  C    0.000000   0.000000  -0.000002   0.000001   0.000033
    20  N    0.000000   0.000000   0.000020   0.000006  -0.000292
    21  C    0.000004  -0.000052   0.001201  -0.000246   0.000353
    22  C    0.000006  -0.000073   0.000022   0.002355  -0.006433
    23  N    0.000005   0.004144  -0.001732  -0.057530  -0.037684
    24  C   -0.000335   0.000092   0.003247   0.002275   0.003828
    25  C   -0.035393   0.005133  -0.002404   0.000866  -0.000097
    26  C    0.387480  -0.034424  -0.040933  -0.006110   0.004917
    27  C   -0.035476   0.378687   0.385367  -0.054445  -0.025949
    28  C    0.004653  -0.026824  -0.039825   0.397229   0.387343
    29  O    0.000000   0.000000  -0.000002  -0.000001   0.000742
    30  F    0.000000   0.000000   0.000000   0.000000   0.000000
    31  O    0.000000   0.000000   0.000000   0.000000   0.000000
    32  H    0.000000   0.000000   0.000000   0.000000   0.000000
    33  H    0.000000   0.000000   0.000000   0.000000   0.000001
    34  H   -0.000003   0.000001   0.000029  -0.000011   0.000094
    35  H   -0.000003   0.000062   0.000997  -0.000042   0.001768
    36  H   -0.000001   0.000006  -0.000025  -0.000148   0.000159
    37  H    0.000000   0.000007   0.000054   0.001129   0.000965
    38  H   -0.000137   0.000006   0.000023   0.000082  -0.000189
    39  H    0.001964  -0.000227  -0.002476  -0.000769   0.000402
    40  H    0.005335  -0.000184  -0.000201  -0.001310   0.000027
    41  H   -0.011623  -0.000144  -0.000012  -0.000041   0.000006
    42  H   -0.035734  -0.009148   0.005571   0.002786  -0.000108
    43  H    0.632187   0.001093  -0.009350   0.000006  -0.000174
    44  H    0.001093   0.619875  -0.033082  -0.001471  -0.002996
    45  H   -0.009350  -0.033082   0.637584   0.006326  -0.005784
    46  H    0.000006  -0.001471   0.006326   0.654235  -0.043161
    47  H   -0.000174  -0.002996  -0.005784  -0.043161   0.611377
 Mulliken charges:
               1
     1  F   -0.244378
     2  C    0.774545
     3  F   -0.242903
     4  C    0.521097
     5  F   -0.267266
     6  F   -0.252213
     7  C    0.173849
     8  F   -0.282953
     9  C    0.626475
    10  F   -0.272310
    11  C    0.518279
    12  O   -0.470050
    13  O   -0.441531
    14  F   -0.263632
    15  C    0.474681
    16  F   -0.284825
    17  C    0.580569
    18  F   -0.265753
    19  C    0.533085
    20  N   -0.544012
    21  C   -0.055329
    22  C   -0.045730
    23  N   -0.435759
    24  C   -0.025768
    25  C   -0.205219
    26  C   -0.182597
    27  C   -0.199853
    28  C   -0.044530
    29  O   -0.509035
    30  F   -0.292775
    31  O   -0.483290
    32  H    0.361065
    33  H    0.291165
    34  H    0.116856
    35  H    0.140106
    36  H    0.097349
    37  H    0.125202
    38  H    0.097965
    39  H    0.072679
    40  H    0.108935
    41  H    0.098803
    42  H    0.099759
    43  H    0.095496
    44  H    0.099521
    45  H    0.095389
    46  H    0.097989
    47  H    0.110851
 Sum of Mulliken charges =   0.00000
 Mulliken charges with hydrogens summed into heavy atoms:
               1
     1  F   -0.244378
     2  C    0.774545
     3  F   -0.242903
     4  C    0.521097
     5  F   -0.267266
     6  F   -0.252213
     7  C    0.173849
     8  F   -0.282953
     9  C    0.626475
    10  F   -0.272310
    11  C    0.518279
    12  O   -0.108985
    13  O   -0.441531
    14  F   -0.263632
    15  C    0.474681
    16  F   -0.284825
    17  C    0.580569
    18  F   -0.265753
    19  C    0.533085
    20  N   -0.252847
    21  C    0.201633
    22  C    0.176821
    23  N   -0.435759
    24  C    0.144876
    25  C    0.002519
    26  C    0.012658
    27  C   -0.004942
    28  C    0.164311
    29  O   -0.509035
    30  F   -0.292775
    31  O   -0.483290
 Electronic spatial extent (au):  <R**2>=          19230.4343
 Charge=              0.0000 electrons
 Dipole moment (field-independent basis, Debye):
    X=              0.0691    Y=             -2.3957    Z=              1.0181  Tot=              2.6040
 Quadrupole moment (field-independent basis, Debye-Ang):
   XX=           -144.9314   YY=           -177.3914   ZZ=           -175.1006
   XY=            -12.1984   XZ=              5.0866   YZ=             -4.0053
 Traceless Quadrupole moment (field-independent basis, Debye-Ang):
   XX=             20.8764   YY=            -11.5836   ZZ=             -9.2928
   XY=            -12.1984   XZ=              5.0866   YZ=             -4.0053
 Octapole moment (field-independent basis, Debye-Ang**2):
  XXX=            490.4562  YYY=           -176.8927  ZZZ=             51.2511  XYY=            265.8670
  XXY=             47.3028  XXZ=             16.4013  XZZ=            230.5587  YZZ=            -52.1027
  YYZ=             13.2993  XYZ=             -0.2214
 Hexadecapole moment (field-independent basis, Debye-Ang**3):
 XXXX=         -16285.9016 YYYY=          -1905.9635 ZZZZ=          -1585.9750 XXXY=            668.4887
 XXXZ=           -254.0484 YYYX=           1572.4453 YYYZ=            175.0007 ZZZX=           -312.5437
 ZZZY=            179.9585 XXYY=          -3582.6330 XXZZ=          -3450.8751 YYZZ=           -577.3129
 XXYZ=             43.2705 YYXZ=            -92.0179 ZZXY=            513.0161
 N-N= 3.797854619980D+03 E-N=-1.228324993407D+04  KE= 1.974313149126D+03
 No NMR shielding tensors so no spin-rotation constants.
 Leave Link  601 at Mon Feb  3 21:47:37 2025, MaxMem=  5368709120 cpu:         2.5
 (Enter /home/k0335/k033513/app/g09/l9999.exe)
 1\1\GINC-C15U05N1\SP\RCAM-B3LYP\6-31G(d,p)\C15H16F10N2O4\K033513\03-Fe
 b-2025\0\\#p CAM-B3LYP/6-31G(d,p) SCRF=(PCM,Solvent=Generic,Read) NoSy
 mm out=wfn\\Title AEP1_neu\\0,1\F,0,-4.488838,3.136366,-0.825293\C,0,-
 3.744091,2.233975,-1.499776\F,0,-3.357929,2.816843,-2.650601\C,0,-4.49
 9154,0.932728,-1.704362\F,0,-3.968108,0.252753,-2.760564\F,0,-5.807056
 ,1.073791,-1.975139\C,0,-4.194269,0.188871,-0.43183\F,0,-4.322765,-1.1
 55665,-0.626136\C,0,-5.062348,0.592655,0.746165\F,0,-4.700158,-0.15474
 ,1.830499\C,0,-6.545329,0.370992,0.446129\O,0,-7.250019,1.5175,0.32307
 \O,0,-7.105563,-0.703565,0.295586\F,0,-4.798258,1.877737,1.10078\C,0,-
 2.720682,0.578121,-0.300615\F,0,-2.03693,-0.10834,-1.272469\C,0,-2.060
 684,0.258817,1.043447\F,0,-2.590065,1.032462,2.029541\C,0,-0.538975,0.
 446272,0.94261\N,0,0.190641,-0.730194,1.030811\C,0,1.638803,-0.749853,
 0.917108\C,0,2.106817,-0.713719,-0.552276\N,0,3.55645,-0.714547,-0.778
 1\C,0,4.216394,-1.965312,-0.402954\C,0,5.733359,-1.847803,-0.538088\C,
 0,6.302456,-0.761865,0.375075\C,0,5.250544,0.265514,0.788684\C,0,4.230
 752,0.506341,-0.322874\O,0,0.000329,1.541664,0.802488\F,0,-2.358129,-1
 .035651,1.380975\O,0,-2.602086,1.958262,-0.693764\H,0,-8.172675,1.2373
 13,0.135447\H,0,-0.305976,-1.608898,1.147449\H,0,1.973198,-1.66718,1.4
 11355\H,0,2.038966,0.103639,1.474725\H,0,1.667204,-1.569451,-1.082411\
 H,0,1.676797,0.166279,-1.049043\H,0,3.86363,-2.771176,-1.057315\H,0,3.
 979709,-2.256983,0.626774\H,0,5.987788,-1.61638,-1.580615\H,0,6.209782
 ,-2.809015,-0.311962\H,0,7.131604,-0.262671,-0.140537\H,0,6.730314,-1.
 215576,1.277033\H,0,5.74239,1.206089,1.061798\H,0,4.730887,-0.086622,1
 .689015\H,0,4.753981,0.935329,-1.187119\H,0,3.517291,1.274894,-0.00176
 \\Version=ES64L-G09RevD.01\HF=-1989.3435013\RMSD=8.176e-09\Dipole=0.02
 71756,-0.9425481,0.4005433\Quadrupole=15.5210723,-8.6121176,-6.9089547
 ,-9.0691757,3.7817322,-2.9778656\PG=C01 [X(C15H16F10N2O4)]\\@

 Writing a WFN file to "cytop/AEP1/AEP1_neu.wfn"


 WOE UNTO THEM THAT CALL EVIL GOOD, AND GOOD EVIL      
 Job cpu time:       0 days  0 hours 17 minutes  5.6 seconds.
 File lengths (MBytes):  RWF=    353 Int=      0 D2E=      0 Chk=     13 Scr=      1
 Normal termination of Gaussian 09 at Mon Feb  3 21:47:37 2025.
